 Gaussian 16, Revision C.01,
 Gaussian 16:  ES64L-G16RevC.01  3-Jul-2019

 ----------------------------------------------------------------------
 #UM06/Def2TZVP Opt Freq(noraman) INT(grid=ultrafine) EmpiricalDispersi
 on=GD3 SCF=XQC Pop=NPA
 ----------------------------------------------------------------------

 99/9=1/99;

 Symbolic Z-matrix:
 Charge =  1 Multiplicity = 1

 SCF Done:  E(UM06) =  -1352.01596221     A.U. after   12 cycles
 SCF Done:  E(UM06) =  -1352.01666869     A.U. after   10 cycles
 SCF Done:  E(UM06) =  -1352.01682823     A.U. after    9 cycles
 SCF Done:  E(UM06) =  -1352.01697237     A.U. after    9 cycles
 SCF Done:  E(UM06) =  -1352.01700222     A.U. after    8 cycles
 SCF Done:  E(UM06) =  -1352.01701860     A.U. after    8 cycles
 SCF Done:  E(UM06) =  -1352.01702761     A.U. after    8 cycles
 SCF Done:  E(UM06) =  -1352.01704098     A.U. after    8 cycles
 SCF Done:  E(UM06) =  -1352.01705257     A.U. after    8 cycles
 SCF Done:  E(UM06) =  -1352.01706088     A.U. after    8 cycles
 SCF Done:  E(UM06) =  -1352.01706728     A.U. after    8 cycles
 SCF Done:  E(UM06) =  -1352.01706857     A.U. after    7 cycles
 SCF Done:  E(UM06) =  -1352.01706939     A.U. after    7 cycles
 SCF Done:  E(UM06) =  -1352.01706930     A.U. after    8 cycles
 SCF Done:  E(UM06) =  -1352.01706935     A.U. after    7 cycles
 SCF Done:  E(UM06) =  -1352.01706923     A.U. after    7 cycles
 SCF Done:  E(UM06) =  -1352.01706960     A.U. after    7 cycles
 SCF Done:  E(UM06) =  -1352.01706995     A.U. after    7 cycles
 SCF Done:  E(UM06) =  -1352.01707018     A.U. after    6 cycles
 Optimization completed.
    -- Stationary point found.
 Normal termination of Gaussian 16 at Thu Sep  5 12:45:50 2024.

 ------------------------------------------------------------------
 #N Geom=AllCheck Guess=TCheck SCRF=Check GenChk UM06/def2TZVP Freq
 ------------------------------------------------------------------

 Structure from the checkpoint file:  "AMPA.a.Ba.CONF1.B3LYP.chk"

 Charge =  1 Multiplicity = 1

                         Standard orientation:
 ---------------------------------------------------------------------
 Center     Atomic      Atomic             Coordinates (Angstroms)
 Number     Number       Type             X           Y           Z
 ---------------------------------------------------------------------
      1          7           0        1.554591    0.318221    2.070759
      2          6           0        2.483089    1.214238    1.349236
      3         15           0        2.076226    1.007987   -0.399874
      4          8           0        0.581178    1.214750   -0.504464
      5          8           0        2.451552   -0.394414   -0.796704
      6          8           0        2.880935    2.110248   -1.185440
      7         56           0        0.347862   -1.547157    0.094419
      8          1           0        3.516240    1.762470   -1.819107
      9          1           0        0.696598    0.821817    2.276837
     10          1           0        2.418047    2.258400    1.667787
     11          1           0        3.509895    0.880304    1.506308
     12          1           0        1.949099    0.056874    2.966844
     13          7           0       -1.448901   -0.428568   -1.956460
     14          6           0       -2.707875    0.097933   -1.413084
     15         15           0       -2.448877    0.681517    0.273994
     16          8           0       -1.745945    2.071191    0.248660
     17          8           0       -1.710162   -0.358240    1.040218
     18          8           0       -3.901556    0.983475    0.766429
     19          1           0       -4.010992    1.730166    1.364645
     20          1           0       -0.805421    0.344433   -2.125089
     21          1           0       -3.150150    0.903352   -2.008981
     22          1           0       -3.446584   -0.705700   -1.352750
     23          1           0       -1.627574   -0.857559   -2.857575
     24          1           0       -0.778797    1.987016    0.015249
 ---------------------------------------------------------------------

 SCF Done:  E(UM06) =  -1352.01707018     A.U. after    1 cycles

 The electronic state is 1-A.
 Alpha  occ. eigenvalues --  -77.46430 -77.42810 -19.37123 -19.35199 -19.34882
 Alpha  occ. eigenvalues --  -19.31172 -19.29348 -19.28599 -14.53401 -14.52540
 Alpha  occ. eigenvalues --  -10.40600 -10.38552  -6.87146  -6.83577  -4.99244
 Alpha  occ. eigenvalues --   -4.99048  -4.98908  -4.95653  -4.95447  -4.95388
 Alpha  occ. eigenvalues --   -1.43161  -1.24157  -1.20773  -1.18622  -1.13998
 Alpha  occ. eigenvalues --   -1.13654  -1.09180  -1.05568  -1.04230  -0.85473
 Alpha  occ. eigenvalues --   -0.84253  -0.84072  -0.83515  -0.82334  -0.75946
 Alpha  occ. eigenvalues --   -0.72736  -0.70460  -0.67297  -0.65417  -0.62918
 Alpha  occ. eigenvalues --   -0.62596  -0.60577  -0.59377  -0.59164  -0.57966
 Alpha  occ. eigenvalues --   -0.56795  -0.56483  -0.54923  -0.53341  -0.52797
 Alpha  occ. eigenvalues --   -0.51734  -0.51566  -0.48968  -0.48032  -0.46856
 Alpha  occ. eigenvalues --   -0.46379  -0.46068  -0.44774  -0.44110  -0.43310
 Alpha  occ. eigenvalues --   -0.42267  -0.41263
 Alpha virt. eigenvalues --   -0.18064  -0.15102  -0.13599  -0.13493  -0.12314
 Alpha virt. eigenvalues --   -0.11944  -0.10837  -0.10819  -0.09099  -0.07269
 Alpha virt. eigenvalues --   -0.06467  -0.05664  -0.05343  -0.05219  -0.04448

  Beta  occ. eigenvalues --  -77.46430 -77.42810 -19.37123 -19.35199 -19.34882
  Beta  occ. eigenvalues --  -19.31172 -19.29348 -19.28599 -14.53401 -14.52540
  Beta  occ. eigenvalues --  -10.40600 -10.38552  -6.87146  -6.83577  -4.99244
  Beta  occ. eigenvalues --   -4.99048  -4.98908  -4.95653  -4.95447  -4.95388
  Beta  occ. eigenvalues --   -1.43161  -1.24157  -1.20773  -1.18622  -1.13998
  Beta  occ. eigenvalues --   -1.13654  -1.09180  -1.05568  -1.04230  -0.85473
  Beta  occ. eigenvalues --   -0.84253  -0.84072  -0.83515  -0.82334  -0.75946
  Beta  occ. eigenvalues --   -0.72736  -0.70460  -0.67297  -0.65417  -0.62918
  Beta  occ. eigenvalues --   -0.62596  -0.60577  -0.59377  -0.59164  -0.57966
  Beta  occ. eigenvalues --   -0.56795  -0.56483  -0.54923  -0.53341  -0.52797
  Beta  occ. eigenvalues --   -0.51734  -0.51566  -0.48968  -0.48032  -0.46856
  Beta  occ. eigenvalues --   -0.46379  -0.46068  -0.44774  -0.44110  -0.43310
  Beta  occ. eigenvalues --   -0.42267  -0.41263
  Beta virt. eigenvalues --   -0.18064  -0.15102  -0.13599  -0.13493  -0.12314
  Beta virt. eigenvalues --   -0.11944  -0.10837  -0.10819  -0.09099  -0.07269
  Beta virt. eigenvalues --   -0.06467  -0.05664  -0.05343  -0.05219  -0.04448

 Mulliken charges and spin densities:
               1          2
     1  N   -0.630142   0.000000
     2  C   -0.123076   0.000000
     3  P    0.785117   0.000000
     4  O   -0.721113   0.000000
     5  O   -0.658399   0.000000
     6  O   -0.494319   0.000000
     7  Ba   1.551720   0.000000
     8  H    0.370845   0.000000
     9  H    0.263453   0.000000
    10  H    0.150257   0.000000
    11  H    0.145019   0.000000
    12  H    0.257302   0.000000
    13  N   -0.644742   0.000000
    14  C   -0.150581   0.000000
    15  P    0.870479   0.000000
    16  O   -0.470561   0.000000
    17  O   -0.663148   0.000000
    18  O   -0.481434   0.000000
    19  H    0.379034   0.000000
    20  H    0.281849   0.000000
    21  H    0.160356   0.000000
    22  H    0.161948   0.000000
    23  H    0.258092   0.000000
    24  H    0.402044   0.000000
 Sum of Mulliken charges =   1.00000   0.00000

 Dipole moment (field-independent basis, Debye):
    X=             -0.5565    Y=             -4.4471    Z=              0.5259  Tot=              4.5125
 Quadrupole moment (field-independent basis, Debye-Ang):
   XX=            -80.2931   YY=            -83.9253   ZZ=            -82.9743
   XY=             -2.4401   XZ=              7.4233   YZ=              4.4217

  Exact polarizability:     134.628       2.355     112.108       1.284       2.400     111.933
 Approx polarizability:     168.848      -0.265     164.603      -2.013       0.282     152.330

 Summary of Natural Population Analysis:

                                       Natural Population
                Natural  -----------------------------------------------
    Atom  No    Charge         Core      Valence    Rydberg      Total
 -----------------------------------------------------------------------
      N    1   -0.45027      0.99981     2.94116    0.00931     3.95027
      C    2   -0.31733      0.99967     2.30379    0.01387     3.31733
      P    3    1.19825      4.99932     1.22698    0.07545     6.30175
      O    4   -0.62990      0.99986     3.61927    0.01078     4.62990
      O    5   -0.61658      0.99990     3.60128    0.01541     4.61658
      O    6   -0.49281      0.99988     3.47925    0.01368     4.49281
     Ba    7    0.93878     26.99206     0.02467    0.04449    27.06122
      H    8    0.26385      0.00000     0.23515    0.00100     0.23615
      H    9    0.19065      0.00000     0.30834    0.00101     0.30935
      H   10    0.10926      0.00000     0.39016    0.00058     0.39074
      H   11    0.11520      0.00000     0.38432    0.00048     0.38480
      H   12    0.19204      0.00000     0.30702    0.00094     0.30796
      N   13   -0.45253      0.99980     2.94002    0.01272     3.95253
      C   14   -0.31656      0.99966     2.30274    0.01416     3.31656
      P   15    1.20667      4.99935     1.22620    0.06778     6.29333
      O   16   -0.50621      0.99988     3.49131    0.01502     4.50621
      O   17   -0.61009      0.99988     3.59626    0.01395     4.61009
      O   18   -0.48961      0.99988     3.47583    0.01391     4.48961
      H   19    0.26744      0.00000     0.23156    0.00101     0.23256
      H   20    0.19887      0.00000     0.30037    0.00076     0.30113
      H   21    0.11270      0.00000     0.38667    0.00063     0.38730
      H   22    0.11813      0.00000     0.38135    0.00052     0.38187
      H   23    0.19327      0.00000     0.30601    0.00072     0.30673
      H   24    0.27681      0.00000     0.22141    0.00179     0.22319
 =======================================================================
   * Total *    0.50000     46.98894    37.68111    0.32995    85.00000

                      1                      2                      3
                      A                      A                      A
 Frequencies --     26.6163                58.7928                80.0534
 Red. masses --      5.6270                 6.0432                 8.1807
 Frc consts  --      0.0023                 0.0123                 0.0309
 IR Inten    --      3.1330                 1.9917                 4.3595

                      4                      5                      6
                      A                      A                      A
 Frequencies --     99.5183               117.7066               135.7697
 Red. masses --      6.2208                 4.1125                 4.0618
 Frc consts  --      0.0363                 0.0336                 0.0441
 IR Inten    --      8.3904                12.9158                13.5299

                      7                      8                      9
                      A                      A                      A
 Frequencies --    137.5074               141.1274               152.2701
 Red. masses --      2.9885                 2.0394                 2.6728
 Frc consts  --      0.0333                 0.0239                 0.0365
 IR Inten    --     63.3287                24.3003                 9.4730

                     10                     11                     12
                      A                      A                      A
 Frequencies --    164.3654               175.1246               179.7552
 Red. masses --      2.7364                 4.6540                 4.4017
 Frc consts  --      0.0436                 0.0841                 0.0838
 IR Inten    --     14.8210                18.7776                66.3839

                     13                     14                     15
                      A                      A                      A
 Frequencies --    218.0068               252.5776               254.9730
 Red. masses --      5.1500                 2.8368                 3.4642
 Frc consts  --      0.1442                 0.1066                 0.1327
 IR Inten    --     20.2843                 5.5183                27.9823

                     16                     17                     18
                      A                      A                      A
 Frequencies --    296.0482               302.3471               362.7142
 Red. masses --      2.9693                 3.2960                 3.3835
 Frc consts  --      0.1533                 0.1775                 0.2623
 IR Inten    --      5.9299                10.8662                10.0037

                     19                     20                     21
                      A                      A                      A
 Frequencies --    372.2935               405.9352               412.6074
 Red. masses --      3.7797                 3.9428                 4.3784
 Frc consts  --      0.3087                 0.3828                 0.4392
 IR Inten    --     26.7109                13.5810                 5.6945

                     22                     23                     24
                      A                      A                      A
 Frequencies --    435.4773               447.8816               475.2817
 Red. masses --      1.5330                 3.7468                 1.5407
 Frc consts  --      0.1713                 0.4428                 0.2051
 IR Inten    --     55.4953                 7.8835               109.5399

                     25                     26                     27
                      A                      A                      A
 Frequencies --    517.4012               525.5433               532.9311
 Red. masses --      8.7647                 4.4213                 7.1204
 Frc consts  --      1.3824                 0.7195                 1.1915
 IR Inten    --     55.4063               104.1540                86.9486

                     28                     29                     30
                      A                      A                      A
 Frequencies --    731.0690               761.2904               817.3918
 Red. masses --      3.1769                 3.8968                 1.2304
 Frc consts  --      1.0004                 1.3306                 0.4844
 IR Inten    --     18.9122                23.7797                21.7146

                     31                     32                     33
                      A                      A                      A
 Frequencies --    825.1743               852.1283               896.4301
 Red. masses --      1.2676                 1.4731                 2.1430
 Frc consts  --      0.5085                 0.6302                 1.0146
 IR Inten    --     37.7063                67.0227               244.4682

                     34                     35                     36
                      A                      A                      A
 Frequencies --    911.6157               981.5607               986.8826
 Red. masses --      2.2644                 1.9571                 2.3951
 Frc consts  --      1.1087                 1.1109                 1.3744
 IR Inten    --    247.8720                17.4116               107.2595

                     37                     38                     39
                      A                      A                      A
 Frequencies --    997.3721              1013.7068              1039.9281
 Red. masses --      2.0976                 2.0982                 4.1584
 Frc consts  --      1.2294                 1.2704                 2.6496
 IR Inten    --     35.6852               100.1046               363.3419

                     40                     41                     42
                      A                      A                      A
 Frequencies --   1048.2167              1071.2149              1099.2018
 Red. masses --      1.8249                 2.1552                 1.1255
 Frc consts  --      1.1814                 1.4571                 0.8012
 IR Inten    --     13.4544                33.4316                 3.9395

                     43                     44                     45
                      A                      A                      A
 Frequencies --   1129.4663              1138.8752              1183.3221
 Red. masses --      1.1624                 5.7450                 2.5322
 Frc consts  --      0.8737                 4.3903                 2.0891
 IR Inten    --     80.7147               240.3529               195.1104

                     46                     47                     48
                      A                      A                      A
 Frequencies --   1214.5902              1253.8718              1274.9532
 Red. masses --      2.6061                 3.1619                 1.3329
 Frc consts  --      2.2652                 2.9289                 1.2765
 IR Inten    --    113.8876               379.4060                25.4614

                     49                     50                     51
                      A                      A                      A
 Frequencies --   1284.9031              1345.1150              1374.5238
 Red. masses --      1.3928                 1.3580                 1.4075
 Frc consts  --      1.3548                 1.4477                 1.5667
 IR Inten    --    121.4546                 7.8114                11.7205

                     52                     53                     54
                      A                      A                      A
 Frequencies --   1443.8701              1449.8878              1622.9876
 Red. masses --      1.0786                 1.0781                 1.0834
 Frc consts  --      1.3249                 1.3353                 1.6814
 IR Inten    --      7.8118                 7.3031                38.1699

                     55                     56                     57
                      A                      A                      A
 Frequencies --   1635.4699              3033.6166              3047.4591
 Red. masses --      1.0783                 1.0619                 1.0625
 Frc consts  --      1.6993                 5.7577                 5.8135
 IR Inten    --     31.1169                 6.7348                 8.7172

                     58                     59                     60
                      A                      A                      A
 Frequencies --   3096.6059              3117.9759              3224.2075
 Red. masses --      1.1023                 1.1032                 1.0697
 Frc consts  --      6.2276                 6.3190                 6.5518
 IR Inten    --      1.0793                 2.2716              1283.6197

                     61                     62                     63
                      A                      A                      A
 Frequencies --   3436.0642              3477.0857              3544.0152
 Red. masses --      1.0565                 1.0521                 1.0869
 Frc consts  --      7.3496                 7.4943                 8.0434
 IR Inten    --     38.2591                10.3927                40.0881

                     64                     65                     66
                      A                      A                      A
 Frequencies --   3560.0202              3862.6578              3872.4682
 Red. masses --      1.0913                 1.0663                 1.0662
 Frc consts  --      8.1491                 9.3739                 9.4205
 IR Inten    --     27.0706               238.6437               204.3190

 - Thermochemistry -
 -------------------
 Temperature   298.150 Kelvin.  Pressure   1.00000 Atm.
 Atom     1 has atomic number  7 and mass  14.00307

 Molecular mass:   358.91424 amu.
 Principal axes and moments of inertia in atomic units:
                           1         2         3
     Eigenvalues --  3100.004715310.269476449.88348
           X            0.99922   0.03060   0.02484
           Y           -0.03146   0.99889   0.03515
           Z           -0.02374  -0.03590   0.99907
 This molecule is an asymmetric top.
 Rotational symmetry number  1.
 Warning -- assumption of classical behavior for rotation
           may cause significant error
 Rotational temperatures (Kelvin)      0.02794     0.01631     0.01343
 Rotational constants (GHZ):           0.58217     0.33986     0.27981
 Zero-point vibrational energy     454209.0 (Joules/Mol)
                                  108.55857 (Kcal/Mol)
 Warning -- explicit consideration of  27 degrees of freedom as
           vibrations may cause significant error
 Vibrational temperatures:     38.29    84.59   115.18   143.18   169.35
          (Kelvin)            195.34   197.84   203.05   219.08   236.49
                              251.97   258.63   313.66   363.40   366.85
                              425.95   435.01   521.86   535.65   584.05
                              593.65   626.55   644.40   683.82   744.42
                              756.14   766.77  1051.85  1095.33  1176.04
                             1187.24  1226.02  1289.76  1311.61  1412.25
                             1419.90  1435.00  1458.50  1496.22  1508.15
                             1541.24  1581.51  1625.05  1638.59  1702.54
                             1747.52  1804.04  1834.37  1848.69  1935.32
                             1977.63  2077.41  2086.07  2335.12  2353.08
                             4364.70  4384.61  4455.33  4486.07  4638.92
                             4943.73  5002.75  5099.05  5122.08  5557.50
                             5571.62

 Zero-point correction=                           0.172999 (Hartree/Particle)
 Thermal correction to Energy=                    0.190138
 Thermal correction to Enthalpy=                  0.191082
 Thermal correction to Gibbs Free Energy=         0.127054
 Sum of electronic and zero-point Energies=          -1351.844071
 Sum of electronic and thermal Energies=             -1351.826932
 Sum of electronic and thermal Enthalpies=           -1351.825988
 Sum of electronic and thermal Free Energies=        -1351.890016

                     E (Thermal)             CV                S
                      KCal/Mol        Cal/Mol-Kelvin    Cal/Mol-Kelvin
 Total                  119.313             60.322            134.760
 Electronic               0.000              0.000              0.000
 Translational            0.889              2.981             43.527
 Rotational               0.889              2.981             33.029
 Vibrational            117.536             54.360             58.204
 Vibration     1          0.593              1.984              6.067
 Vibration     2          0.596              1.974              4.497
 Vibration     3          0.600              1.963              3.890
 Vibration     4          0.604              1.949              3.464
 Vibration     5          0.608              1.935              3.138
 Vibration     6          0.614              1.918              2.863
 Vibration     7          0.614              1.916              2.838
 Vibration     8          0.615              1.912              2.789
 Vibration     9          0.619              1.900              2.644
 Vibration    10          0.623              1.886              2.499
 Vibration    11          0.627              1.873              2.380
 Vibration    12          0.629              1.867              2.331
 Vibration    13          0.646              1.814              1.976
 Vibration    14          0.664              1.758              1.713
 Vibration    15          0.665              1.754              1.696
 Vibration    16          0.690              1.681              1.439
 Vibration    17          0.694              1.669              1.404
 Vibration    18          0.737              1.549              1.110
 Vibration    19          0.744              1.529              1.070
 Vibration    20          0.771              1.457              0.941
 Vibration    21          0.776              1.443              0.917
 Vibration    22          0.796              1.393              0.841
 Vibration    23          0.807              1.366              0.802
 Vibration    24          0.832              1.305              0.723
 Vibration    25          0.872              1.211              0.616
 Vibration    26          0.880              1.193              0.597
 Vibration    27          0.888              1.177              0.581

                           ! Non-Optimized Parameters !
 Normal termination of Gaussian 16 at Thu Sep  5 13:03:02 2024.
