 Gaussian 16, Revision C.01,
 Gaussian 16:  ES64L-G16RevC.01  3-Jul-2019

 ----------------------------------------------------------------------
 #UM06/Def2TZVP OPT Freq=Noraman INT(grid=ultrafine) EmpiricalDispersio
 n=GD3 SCF=XQC Pop=NPA
 ----------------------------------------------------------------------

 -----------------------------
 AMPA.a.Ca.CONF1.B3LYP.optfreq
 -----------------------------
 Symbolic Z-matrix:
 Charge =  1 Multiplicity = 1

 SCF Done:  E(UM06) =  -2004.11122572     A.U. after   13 cycles
 SCF Done:  E(UM06) =  -2004.11837851     A.U. after   10 cycles
 SCF Done:  E(UM06) =  -2004.11902062     A.U. after    9 cycles
 SCF Done:  E(UM06) =  -2004.11908574     A.U. after    9 cycles
 SCF Done:  E(UM06) =  -2004.11914433     A.U. after    8 cycles
 SCF Done:  E(UM06) =  -2004.11916096     A.U. after    8 cycles
 SCF Done:  E(UM06) =  -2004.11917034     A.U. after    8 cycles
 SCF Done:  E(UM06) =  -2004.11918235     A.U. after    8 cycles
 SCF Done:  E(UM06) =  -2004.11920029     A.U. after    8 cycles
 SCF Done:  E(UM06) =  -2004.11921956     A.U. after    8 cycles
 SCF Done:  E(UM06) =  -2004.11924644     A.U. after    7 cycles
 SCF Done:  E(UM06) =  -2004.11925009     A.U. after    8 cycles
 SCF Done:  E(UM06) =  -2004.11925347     A.U. after    8 cycles
 SCF Done:  E(UM06) =  -2004.11925635     A.U. after    8 cycles
 SCF Done:  E(UM06) =  -2004.11925872     A.U. after    7 cycles
 SCF Done:  E(UM06) =  -2004.11925934     A.U. after    7 cycles
 SCF Done:  E(UM06) =  -2004.11925950     A.U. after    7 cycles
 SCF Done:  E(UM06) =  -2004.11925965     A.U. after    6 cycles
 SCF Done:  E(UM06) =  -2004.11925978     A.U. after    6 cycles
 Optimization completed.
    -- Stationary point found.
 Normal termination of Gaussian 16 at Thu Sep  5 02:11:25 2024.

 ------------------------------------------------------------------
 #N Geom=AllCheck Guess=TCheck SCRF=Check GenChk UM06/def2TZVP Freq
 ------------------------------------------------------------------

 Structure from the checkpoint file:  "AMPA.a.Ca.CONF1.B3LYP.chk"
 -----------------------------
 AMPA.a.Ca.CONF1.B3LYP.optfreq
 -----------------------------
 Charge =  1 Multiplicity = 1

                         Standard orientation:
 ---------------------------------------------------------------------
 Center     Atomic      Atomic             Coordinates (Angstroms)
 Number     Number       Type             X           Y           Z
 ---------------------------------------------------------------------
      1          7           0       -1.745485   -1.967636   -0.664787
      2          6           0       -2.762978   -1.370867    0.239434
      3         15           0       -2.182158    0.323937    0.477559
      4          8           0       -2.235947    0.990603   -0.873602
      5          8           0       -0.736912    0.189238    0.908104
      6          8           0       -3.085939    1.003482    1.565528
      7         20           0       -0.275304    0.004372   -1.500540
      8          1           0       -3.580828    1.771323    1.261690
      9          1           0       -2.177549   -2.666207   -1.258651
     10          1           0       -3.732008   -1.349027   -0.260528
     11          1           0       -2.876851   -1.919904    1.176565
     12          1           0       -1.056515   -2.463051   -0.106339
     13          7           0        1.247742    1.904775   -0.684735
     14          6           0        2.544515    1.408146   -0.191507
     15         15           0        2.350924   -0.311308    0.320871
     16          8           0        3.819448   -0.786040    0.539275
     17          8           0        1.581369   -1.017612   -0.742700
     18          8           0        1.687721   -0.382821    1.727035
     19          1           0        0.703487   -0.255176    1.683435
     20          1           0        1.389423    2.765586   -1.202005
     21          1           0        3.268448    1.406160   -1.010089
     22          1           0        2.968521    2.005002    0.621064
     23          1           0        0.655428    2.148613    0.107328
     24          1           0        3.970116   -1.478643    1.191860
 ---------------------------------------------------------------------

 SCF Done:  E(UM06) =  -2004.11925978     A.U. after    1 cycles

 The electronic state is 1-A.
 Alpha  occ. eigenvalues -- -145.68656 -77.47730 -77.43981 -19.38333 -19.36433
 Alpha  occ. eigenvalues --  -19.36211 -19.32549 -19.30415 -19.29672 -15.68286
 Alpha  occ. eigenvalues --  -14.55262 -14.54064 -12.75209 -12.75157 -12.75077
 Alpha  occ. eigenvalues --  -10.41886 -10.39697  -6.88444  -6.84763  -5.00533
 Alpha  occ. eigenvalues --   -5.00345  -5.00217  -4.96836  -4.96637  -4.96567
 Alpha  occ. eigenvalues --   -1.93343  -1.25463  -1.22656  -1.20580  -1.20253
 Alpha  occ. eigenvalues --   -1.19635  -1.19512  -1.14429  -1.13782  -1.09723
 Alpha  occ. eigenvalues --   -1.07091  -1.05437  -0.86523  -0.83739  -0.77427
 Alpha  occ. eigenvalues --   -0.74111  -0.71708  -0.68570  -0.66677  -0.64730
 Alpha  occ. eigenvalues --   -0.64065  -0.61927  -0.60983  -0.60640  -0.59424
 Alpha  occ. eigenvalues --   -0.58118  -0.57416  -0.55940  -0.54718  -0.53971
 Alpha  occ. eigenvalues --   -0.52883  -0.52732  -0.50504  -0.49500  -0.48715
 Alpha  occ. eigenvalues --   -0.48180  -0.47444  -0.46191  -0.45362  -0.45055
 Alpha  occ. eigenvalues --   -0.43263  -0.42816
 Alpha virt. eigenvalues --   -0.18431  -0.14406  -0.12680  -0.12406  -0.10438
 Alpha virt. eigenvalues --   -0.09560  -0.09128  -0.08750  -0.07422  -0.06423
 Alpha virt. eigenvalues --   -0.05596  -0.05246  -0.04373  -0.03676  -0.03275

  Beta  occ. eigenvalues -- -145.68656 -77.47730 -77.43981 -19.38333 -19.36433
  Beta  occ. eigenvalues --  -19.36211 -19.32549 -19.30415 -19.29672 -15.68286
  Beta  occ. eigenvalues --  -14.55262 -14.54064 -12.75209 -12.75157 -12.75077
  Beta  occ. eigenvalues --  -10.41886 -10.39697  -6.88444  -6.84763  -5.00533
  Beta  occ. eigenvalues --   -5.00345  -5.00217  -4.96836  -4.96637  -4.96567
  Beta  occ. eigenvalues --   -1.93343  -1.25463  -1.22656  -1.20580  -1.20253
  Beta  occ. eigenvalues --   -1.19635  -1.19512  -1.14429  -1.13782  -1.09723
  Beta  occ. eigenvalues --   -1.07091  -1.05437  -0.86523  -0.83739  -0.77427
  Beta  occ. eigenvalues --   -0.74111  -0.71708  -0.68570  -0.66677  -0.64730
  Beta  occ. eigenvalues --   -0.64065  -0.61927  -0.60983  -0.60640  -0.59424
  Beta  occ. eigenvalues --   -0.58118  -0.57416  -0.55940  -0.54718  -0.53971
  Beta  occ. eigenvalues --   -0.52883  -0.52732  -0.50504  -0.49500  -0.48715
  Beta  occ. eigenvalues --   -0.48180  -0.47444  -0.46191  -0.45362  -0.45055
  Beta  occ. eigenvalues --   -0.43263  -0.42816
  Beta virt. eigenvalues --   -0.18431  -0.14406  -0.12680  -0.12406  -0.10438
  Beta virt. eigenvalues --   -0.09560  -0.09128  -0.08750  -0.07422  -0.06423
  Beta virt. eigenvalues --   -0.05596  -0.05246  -0.04373  -0.03676  -0.03275

 Mulliken charges and spin densities:
               1          2
     1  N   -0.603525   0.000000
     2  C   -0.124464   0.000000
     3  P    0.774264   0.000000
     4  O   -0.614078   0.000000
     5  O   -0.672981   0.000000
     6  O   -0.489259   0.000000
     7  Ca   1.310421   0.000000
     8  H    0.375071   0.000000
     9  H    0.263414   0.000000
    10  H    0.146362   0.000000
    11  H    0.151634   0.000000
    12  H    0.274420   0.000000
    13  N   -0.624672   0.000000
    14  C   -0.148523   0.000000
    15  P    0.839111   0.000000
    16  O   -0.476206   0.000000
    17  O   -0.603232   0.000000
    18  O   -0.457852   0.000000
    19  H    0.411908   0.000000
    20  H    0.269749   0.000000
    21  H    0.167808   0.000000
    22  H    0.165983   0.000000
    23  H    0.281463   0.000000
    24  H    0.383184   0.000000
 Sum of Mulliken charges =   1.00000   0.00000

 Dipole moment (field-independent basis, Debye):
    X=              0.6220    Y=             -0.1221    Z=             -4.1481  Tot=              4.1963
 Quadrupole moment (field-independent basis, Debye-Ang):
   XX=            -65.1671   YY=            -72.1465   ZZ=            -81.7159
   XY=              7.2025   XZ=              2.4607   YZ=             -1.6325

  Exact polarizability:     124.680       0.496     104.076      -0.688      -0.920      97.222
 Approx polarizability:     151.506      -3.198     137.408       0.174      -0.964     145.227

 Summary of Natural Population Analysis:

                                       Natural Population
                Natural  -----------------------------------------------
    Atom  No    Charge         Core      Valence    Rydberg      Total
 -----------------------------------------------------------------------
      N    1   -0.45642      0.99981     2.94760    0.00901     3.95642
      C    2   -0.31692      0.99967     2.30362    0.01363     3.31692
      P    3    1.19159      4.99929     1.23324    0.07589     6.30841
      O    4   -0.61189      0.99990     3.59610    0.01589     4.61189
      O    5   -0.62946      0.99986     3.61849    0.01111     4.62946
      O    6   -0.49016      0.99988     3.47659    0.01370     4.49016
     Ca    7    0.91425      8.99666     0.04222    0.04687     9.08575
      H    8    0.26578      0.00000     0.23323    0.00098     0.23422
      H    9    0.19498      0.00000     0.30418    0.00085     0.30502
      H   10    0.11662      0.00000     0.38290    0.00047     0.38338
      H   11    0.11240      0.00000     0.38705    0.00055     0.38760
      H   12    0.19396      0.00000     0.30517    0.00087     0.30604
      N   13   -0.45512      0.99981     2.94654    0.00878     3.95512
      C   14   -0.31759      0.99966     2.30383    0.01410     3.31759
      P   15    1.20473      4.99934     1.22809    0.06784     6.29527
      O   16   -0.48787      0.99988     3.47409    0.01390     4.48787
      O   17   -0.60681      0.99988     3.59274    0.01419     4.60681
      O   18   -0.50161      0.99988     3.48678    0.01496     4.50161
      H   19    0.27870      0.00000     0.21958    0.00172     0.22130
      H   20    0.19671      0.00000     0.30241    0.00087     0.30329
      H   21    0.12090      0.00000     0.37862    0.00048     0.37910
      H   22    0.11582      0.00000     0.38361    0.00058     0.38418
      H   23    0.19834      0.00000     0.30069    0.00098     0.30166
      H   24    0.26910      0.00000     0.22991    0.00100     0.23090
 =======================================================================
   * Total *    0.50000     28.99351    37.67728    0.32921    67.00000

                      1                      2                      3
                      A                      A                      A
 Frequencies --     45.0252                54.8896                95.6436
 Red. masses --      5.8646                 5.4555                 5.2485
 Frc consts  --      0.0070                 0.0097                 0.0283
 IR Inten    --      2.9974                 5.4442                 7.2476

                      4                      5                      6
                      A                      A                      A
 Frequencies --    114.8748               124.1956               139.6883
 Red. masses --      4.6903                 2.6665                 2.4278
 Frc consts  --      0.0365                 0.0242                 0.0279
 IR Inten    --     10.4706                26.2853                11.1101

                      7                      8                      9
                      A                      A                      A
 Frequencies --    151.6025               164.4966               175.3552
 Red. masses --      1.9812                 2.2613                 7.0331
 Frc consts  --      0.0268                 0.0361                 0.1274
 IR Inten    --     39.1177                12.1887                10.4597

                     10                     11                     12
                      A                      A                      A
 Frequencies --    193.0045               204.0406               239.0194
 Red. masses --      2.1969                 5.3040                 9.9497
 Frc consts  --      0.0482                 0.1301                 0.3349
 IR Inten    --     95.0982                47.4891                17.2409

                     13                     14                     15
                      A                      A                      A
 Frequencies --    265.7093               274.2034               296.8083
 Red. masses --      3.2395                 3.4453                 3.1503
 Frc consts  --      0.1348                 0.1526                 0.1635
 IR Inten    --      0.1573                 5.5021                 5.5304

                     16                     17                     18
                      A                      A                      A
 Frequencies --    306.4507               322.6640               373.3439
 Red. masses --      3.6397                 6.3375                 3.6505
 Frc consts  --      0.2014                 0.3888                 0.2998
 IR Inten    --      1.0598                47.1158                12.1594

                     19                     20                     21
                      A                      A                      A
 Frequencies --    394.8734               412.3386               422.8423
 Red. masses --      5.5310                 4.5323                 3.4263
 Frc consts  --      0.5081                 0.4540                 0.3609
 IR Inten    --     36.3582                14.3901                 6.8871

                     22                     23                     24
                      A                      A                      A
 Frequencies --    448.1367               470.9762               482.2114
 Red. masses --      4.9001                 1.3889                 1.8974
 Frc consts  --      0.5798                 0.1815                 0.2599
 IR Inten    --     15.5597                38.5114               144.5098

                     25                     26                     27
                      A                      A                      A
 Frequencies --    529.8527               536.8778               540.9395
 Red. masses --      5.6297                 5.1039                 9.4441
 Frc consts  --      0.9312                 0.8668                 1.6282
 IR Inten    --     72.7249               120.7201                84.5045

                     28                     29                     30
                      A                      A                      A
 Frequencies --    731.2191               762.8105               770.3843
 Red. masses --      2.7446                 1.6524                 1.8207
 Frc consts  --      0.8646                 0.5665                 0.6366
 IR Inten    --     11.0423                20.1469               104.6294

                     31                     32                     33
                      A                      A                      A
 Frequencies --    819.2179               841.2647               894.2532
 Red. masses --      1.4455                 1.5634                 2.0427
 Frc consts  --      0.5716                 0.6519                 0.9624
 IR Inten    --      4.4789                27.0381               264.5616

                     34                     35                     36
                      A                      A                      A
 Frequencies --    902.4954               984.9375               995.6392
 Red. masses --      1.9553                 3.1521                 3.1652
 Frc consts  --      0.9383                 1.8017                 1.8486
 IR Inten    --    187.2445                18.9922               125.2340

                     37                     38                     39
                      A                      A                      A
 Frequencies --   1001.8203              1022.4803              1047.5400
 Red. masses --      2.5574                 2.4528                 3.7578
 Frc consts  --      1.5123                 1.5109                 2.4295
 IR Inten    --     38.6306                99.1966               304.5212

                     40                     41                     42
                      A                      A                      A
 Frequencies --   1053.3806              1064.5386              1099.6990
 Red. masses --      1.3227                 1.7407                 1.1185
 Frc consts  --      0.8647                 1.1622                 0.7970
 IR Inten    --     75.1934                22.2471                 9.6726

                     43                     44                     45
                      A                      A                      A
 Frequencies --   1121.8546              1145.3637              1171.2283
 Red. masses --      1.1279                 4.4856                 2.2184
 Frc consts  --      0.8363                 3.4671                 1.7929
 IR Inten    --     53.4667               284.7192               191.7465

                     46                     47                     48
                      A                      A                      A
 Frequencies --   1204.8669              1250.0279              1276.8001
 Red. masses --      3.6641                 4.1405                 1.3465
 Frc consts  --      3.1340                 3.8119                 1.2933
 IR Inten    --    147.5806               385.7119                14.4305

                     49                     50                     51
                      A                      A                      A
 Frequencies --   1286.2539              1336.8696              1363.7611
 Red. masses --      1.3538                 1.3149                 1.3904
 Frc consts  --      1.3196                 1.3846                 1.5236
 IR Inten    --     77.2504                 5.6924                 8.7290

                     52                     53                     54
                      A                      A                      A
 Frequencies --   1440.5390              1445.1026              1619.1069
 Red. masses --      1.0778                 1.0782                 1.0833
 Frc consts  --      1.3178                 1.3266                 1.6731
 IR Inten    --      9.2931                 9.0308                43.9957

                     55                     56                     57
                      A                      A                      A
 Frequencies --   1626.7276              3046.2269              3061.1313
 Red. masses --      1.0799                 1.0608                 1.0609
 Frc consts  --      1.6837                 5.7999                 5.8570
 IR Inten    --     32.2735                 4.5164                 5.1989

                     58                     59                     60
                      A                      A                      A
 Frequencies --   3107.5204              3128.1441              3326.9299
 Red. masses --      1.1044                 1.1060                 1.0683
 Frc consts  --      6.2838                 6.3762                 6.9669
 IR Inten    --      0.7691                 1.0382              1143.1463

                     61                     62                     63
                      A                      A                      A
 Frequencies --   3452.1569              3479.2725              3544.3838
 Red. masses --      1.0552                 1.0521                 1.0882
 Frc consts  --      7.4089                 7.5039                 8.0546
 IR Inten    --     23.4298                15.8219                40.1676

                     64                     65                     66
                      A                      A                      A
 Frequencies --   3559.3549              3856.5946              3868.4731
 Red. masses --      1.0916                 1.0664                 1.0663
 Frc consts  --      8.1479                 9.3451                 9.4021
 IR Inten    --     30.9781               252.2967               215.1364

 - Thermochemistry -
 -------------------
 Temperature   298.150 Kelvin.  Pressure   1.00000 Atm.
 Atom     1 has atomic number  7 and mass  14.00307

 Molecular mass:   260.97183 amu.
 Principal axes and moments of inertia in atomic units:
                           1         2         3
     Eigenvalues --  1830.496185167.400165201.85520
           X            0.99968   0.02467  -0.00509
           Y           -0.02518   0.98586  -0.16570
           Z            0.00093   0.16577   0.98616
 This molecule is an asymmetric top.
 Rotational symmetry number  1.
 Warning -- assumption of classical behavior for rotation
           may cause significant error
 Rotational temperatures (Kelvin)      0.04732     0.01676     0.01665
 Rotational constants (GHZ):           0.98593     0.34926     0.34694
 Zero-point vibrational energy     457514.4 (Joules/Mol)
                                  109.34857 (Kcal/Mol)
 Warning -- explicit consideration of  27 degrees of freedom as
           vibrations may cause significant error
 Vibrational temperatures:     64.78    78.97   137.61   165.28   178.69
          (Kelvin)            200.98   218.12   236.67   252.30   277.69
                              293.57   343.90   382.30   394.52   427.04
                              440.91   464.24   537.16   568.13   593.26
                              608.38   644.77   677.63   693.79   762.34
                              772.45   778.29  1052.06  1097.51  1108.41
                             1178.67  1210.39  1286.63  1298.49  1417.11
                             1432.50  1441.40  1471.12  1507.18  1515.58
                             1531.63  1582.22  1614.10  1647.92  1685.14
                             1733.53  1798.51  1837.03  1850.63  1923.46
                             1962.15  2072.61  2079.18  2329.53  2340.50
                             4382.84  4404.29  4471.03  4500.70  4786.71
                             4966.88  5005.90  5099.58  5121.12  5548.78
                             5565.87

 Zero-point correction=                           0.174258 (Hartree/Particle)
 Thermal correction to Energy=                    0.190719
 Thermal correction to Enthalpy=                  0.191663
 Thermal correction to Gibbs Free Energy=         0.130729
 Sum of electronic and zero-point Energies=          -2003.945002
 Sum of electronic and thermal Energies=             -2003.928541
 Sum of electronic and thermal Enthalpies=           -2003.927596
 Sum of electronic and thermal Free Energies=        -2003.988531

                     E (Thermal)             CV                S
                      KCal/Mol        Cal/Mol-Kelvin    Cal/Mol-Kelvin
 Total                  119.678             59.647            128.248
 Electronic               0.000              0.000              0.000
 Translational            0.889              2.981             42.577
 Rotational               0.889              2.981             32.265
 Vibrational            117.901             53.685             53.406
 Vibration     1          0.595              1.979              5.025
 Vibration     2          0.596              1.976              4.633
 Vibration     3          0.603              1.952              3.541
 Vibration     4          0.608              1.937              3.185
 Vibration     5          0.610              1.929              3.034
 Vibration     6          0.615              1.914              2.808
 Vibration     7          0.619              1.901              2.652
 Vibration     8          0.623              1.886              2.497
 Vibration     9          0.627              1.873              2.377
 Vibration    10          0.635              1.850              2.199
 Vibration    11          0.640              1.834              2.096
 Vibration    12          0.657              1.781              1.810
 Vibration    13          0.672              1.736              1.624
 Vibration    14          0.677              1.721              1.570
 Vibration    15          0.690              1.680              1.435
 Vibration    16          0.697              1.661              1.381
 Vibration    17          0.708              1.630              1.297
 Vibration    18          0.745              1.527              1.066
 Vibration    19          0.762              1.481              0.982
 Vibration    20          0.776              1.443              0.918
 Vibration    21          0.785              1.421              0.882
 Vibration    22          0.807              1.365              0.801
 Vibration    23          0.828              1.314              0.735
 Vibration    24          0.838              1.290              0.704
 Vibration    25          0.885              1.184              0.588
 Vibration    26          0.892              1.168              0.572
 Vibration    27          0.896              1.160              0.563

 Optimization completed.
    -- Stationary point found.
 Normal termination of Gaussian 16 at Thu Sep  5 02:32:54 2024.
