 Gaussian 16, Revision C.01,
 Gaussian 16:  ES64L-G16RevC.01  3-Jul-2019

 ----------------------------------------------------------------------
 #UM06/Def2TZVP OPT Freq=Noraman INT(grid=ultrafine) EmpiricalDispersio
 n=GD3 SCF=XQC Pop=NPA
 ----------------------------------------------------------------------

 -----------------------------
 AMPA.a.Cu.CONF1.B3LYP.optfreq
 -----------------------------
 Symbolic Z-matrix:
 Charge =  1 Multiplicity = 2

 SCF Done:  E(UM06) =  -2966.87600128     A.U. after   19 cycles
 SCF Done:  E(UM06) =  -2966.88164614     A.U. after   14 cycles
 SCF Done:  E(UM06) =  -2966.87731183     A.U. after   18 cycles
 SCF Done:  E(UM06) =  -2966.88213307     A.U. after   14 cycles
 SCF Done:  E(UM06) =  -2966.88225257     A.U. after   15 cycles
 SCF Done:  E(UM06) =  -2966.88232931     A.U. after   13 cycles
 SCF Done:  E(UM06) =  -2966.88237339     A.U. after   12 cycles
 SCF Done:  E(UM06) =  -2966.88240073     A.U. after   12 cycles
 SCF Done:  E(UM06) =  -2966.88242593     A.U. after   12 cycles
 SCF Done:  E(UM06) =  -2966.88244454     A.U. after   13 cycles
 SCF Done:  E(UM06) =  -2966.88246146     A.U. after   12 cycles
 SCF Done:  E(UM06) =  -2966.88246536     A.U. after   12 cycles
 SCF Done:  E(UM06) =  -2966.88246778     A.U. after   12 cycles
 SCF Done:  E(UM06) =  -2966.88246987     A.U. after   12 cycles
 SCF Done:  E(UM06) =  -2966.88247118     A.U. after   11 cycles
 SCF Done:  E(UM06) =  -2966.88247245     A.U. after   11 cycles
 SCF Done:  E(UM06) =  -2966.88247320     A.U. after   11 cycles
 SCF Done:  E(UM06) =  -2966.88247341     A.U. after   10 cycles
 SCF Done:  E(UM06) =  -2966.88247352     A.U. after   10 cycles
 Optimization completed.
    -- Stationary point found.
 Normal termination of Gaussian 16 at Thu Sep  5 02:18:59 2024.

 ------------------------------------------------------------------
 #N Geom=AllCheck Guess=TCheck SCRF=Check GenChk UM06/def2TZVP Freq
 ------------------------------------------------------------------

 Structure from the checkpoint file:  "AMPA.a.Cu.CONF1.B3LYP.chk"
 -----------------------------
 AMPA.a.Cu.CONF1.B3LYP.optfreq
 -----------------------------
 Charge =  1 Multiplicity = 2

                         Standard orientation:
 ---------------------------------------------------------------------
 Center     Atomic      Atomic             Coordinates (Angstroms)
 Number     Number       Type             X           Y           Z
 ---------------------------------------------------------------------
      1          7           0        1.322849   -1.107837   -1.585337
      2          6           0        2.551468   -0.329475   -1.266445
      3         15           0        2.097838    0.608671    0.222425
      4          8           0        1.579418   -0.515392    1.125625
      5          8           0        1.093843    1.651283   -0.131891
      6          8           0        3.428455    1.186043    0.812824
      7         29           0        0.093063   -1.095440    0.024117
      8          1           0        3.437369    2.141386    0.935040
      9          1           0        1.546451   -2.033908   -1.934545
     10          1           0        3.365858   -1.012831   -1.026251
     11          1           0        2.853513    0.300457   -2.103194
     12          1           0        0.768036   -0.640220   -2.297818
     13          7           0       -1.126101   -1.000339    1.652452
     14          6           0       -2.416119   -0.347367    1.334145
     15         15           0       -2.189842    0.473765   -0.261170
     16          8           0       -3.631648    0.789576   -0.745963
     17          8           0       -1.439381   -0.524722   -1.099000
     18          8           0       -1.469133    1.822014   -0.074026
     19          1           0       -0.451653    1.830970   -0.113193
     20          1           0       -1.265544   -1.898057    2.104679
     21          1           0       -3.192625   -1.103016    1.204369
     22          1           0       -2.737976    0.340478    2.117071
     23          1           0       -0.559318   -0.437577    2.283648
     24          1           0       -3.764658    1.591421   -1.264591
 ---------------------------------------------------------------------

 SCF Done:  E(UM06) =  -2966.88247352     A.U. after    1 cycles

 The electronic state is 2-A.
 Alpha  occ. eigenvalues -- -323.54676 -77.49573 -77.45372 -39.32671 -34.44829
 Alpha  occ. eigenvalues --  -34.44329 -34.42372 -19.40025 -19.37428 -19.36982
 Alpha  occ. eigenvalues --  -19.35411 -19.33156 -19.30641 -14.60237 -14.59424
 Alpha  occ. eigenvalues --  -10.44101 -10.41721  -6.90279  -6.86097  -5.02346
 Alpha  occ. eigenvalues --   -5.02173  -5.02088  -4.98161  -4.97986  -4.97914
 Alpha  occ. eigenvalues --   -4.68361  -3.15536  -3.14642  -3.11135  -1.27003
 Alpha  occ. eigenvalues --   -1.23112  -1.21168  -1.17426  -1.16371  -1.12033
 Alpha  occ. eigenvalues --   -1.10986  -1.09741  -0.89039  -0.86174  -0.79567
 Alpha  occ. eigenvalues --   -0.75592  -0.73718  -0.71708  -0.70894  -0.69036
 Alpha  occ. eigenvalues --   -0.67003  -0.65673  -0.64407  -0.63336  -0.62688
 Alpha  occ. eigenvalues --   -0.61494  -0.61113  -0.59076  -0.58536  -0.58031
 Alpha  occ. eigenvalues --   -0.57603  -0.56779  -0.56558  -0.56197  -0.54925
 Alpha  occ. eigenvalues --   -0.54257  -0.53954  -0.51949  -0.51737  -0.50817
 Alpha  occ. eigenvalues --   -0.49855  -0.48982  -0.48035  -0.46626  -0.45574
 Alpha  occ. eigenvalues --   -0.44303  -0.42746
 Alpha virt. eigenvalues --   -0.16732  -0.12348  -0.10594  -0.10416  -0.08657
 Alpha virt. eigenvalues --   -0.08267  -0.07275  -0.06626  -0.05935  -0.04640
 Alpha virt. eigenvalues --   -0.03620  -0.03173  -0.02414  -0.02153  -0.01665

  Beta  occ. eigenvalues -- -323.54647 -77.49570 -77.45371 -39.31246 -34.42999
  Beta  occ. eigenvalues --  -34.42638 -34.41773 -19.40016 -19.37424 -19.36966
  Beta  occ. eigenvalues --  -19.35258 -19.32894 -19.30633 -14.60019 -14.59178
  Beta  occ. eigenvalues --  -10.44109 -10.41729  -6.90275  -6.86095  -5.02341
  Beta  occ. eigenvalues --   -5.02171  -5.02075  -4.98157  -4.97981  -4.97912
  Beta  occ. eigenvalues --   -4.63231  -3.09153  -3.08512  -3.08387  -1.26941
  Beta  occ. eigenvalues --   -1.22986  -1.21127  -1.17071  -1.15911  -1.11717
  Beta  occ. eigenvalues --   -1.10552  -1.09221  -0.88938  -0.86042  -0.79466
  Beta  occ. eigenvalues --   -0.75431  -0.73666  -0.71465  -0.70600  -0.68252
  Beta  occ. eigenvalues --   -0.66541  -0.64821  -0.64122  -0.62701  -0.61239
  Beta  occ. eigenvalues --   -0.60712  -0.58845  -0.58020  -0.57623  -0.56966
  Beta  occ. eigenvalues --   -0.56425  -0.54907  -0.54621  -0.54254  -0.53986
  Beta  occ. eigenvalues --   -0.53828  -0.52238  -0.51270  -0.50978  -0.50344
  Beta  occ. eigenvalues --   -0.48903  -0.48251  -0.47510  -0.46089  -0.44701
  Beta  occ. eigenvalues --   -0.43793
  Beta virt. eigenvalues --   -0.28063  -0.16516  -0.12312  -0.10588  -0.10324
  Beta virt. eigenvalues --   -0.08608  -0.08245  -0.07214  -0.06511  -0.05859
  Beta virt. eigenvalues --   -0.04589  -0.03477  -0.03087  -0.02367  -0.02078

 Mulliken charges and spin densities:
               1          2
     1  N   -0.237127   0.120094
     2  C   -0.208827  -0.005323
     3  P    0.829016   0.002158
     4  O   -0.462368   0.114519
     5  O   -0.597415   0.005224
     6  O   -0.480981   0.006082
     7  Cu   0.118874   0.594394
     8  H    0.379824  -0.000075
     9  H    0.290257  -0.001015
    10  H    0.168201   0.000601
    11  H    0.157776   0.002848
    12  H    0.293292  -0.003393
    13  N   -0.271404   0.103068
    14  C   -0.191840  -0.003429
    15  P    0.843649   0.002788
    16  O   -0.466637   0.003532
    17  O   -0.455605   0.056681
    18  O   -0.446982   0.002418
    19  H    0.397130   0.000246
    20  H    0.297020  -0.001022
    21  H    0.177851   0.000562
    22  H    0.173418   0.002708
    23  H    0.302716  -0.003510
    24  H    0.390163  -0.000156
 Sum of Mulliken charges =   1.00000   1.00000

 Dipole moment (field-independent basis, Debye):
    X=             -1.8520    Y=             -2.0841    Z=             -0.4554  Tot=              2.8250
 Quadrupole moment (field-independent basis, Debye-Ang):
   XX=            -62.7587   YY=            -78.0110   ZZ=            -75.0640
   XY=             -0.7777   XZ=            -11.5946   YZ=             -0.4475

  Exact polarizability:     138.481       1.030      99.248      -6.241       0.456     102.618
 Approx polarizability:     166.010       0.689     146.612      -1.704       0.428     145.267

 Summary of Natural Population Analysis:

                                       Natural Population
                Natural  -----------------------------------------------
    Atom  No    Charge         Core      Valence    Rydberg      Total
 -----------------------------------------------------------------------
      N    1   -0.32796      0.99976     2.82120    0.00700     3.82796
      C    2   -0.31721      0.99966     2.30440    0.01315     3.31721
      P    3    1.19899      4.99920     1.22810    0.07371     6.30101
      O    4   -0.47221      0.99989     3.45687    0.01544     4.47221
      O    5   -0.57542      0.99984     3.56277    0.01281     4.57542
      O    6   -0.48277      0.99988     3.46898    0.01392     4.48277
     Cu    7    0.77242      8.99881     4.72377    0.00500    13.72758
      H    8    0.26688      0.00000     0.23218    0.00094     0.23312
      H    9    0.20682      0.00000     0.29248    0.00070     0.29318
      H   10    0.12114      0.00000     0.37838    0.00048     0.37886
      H   11    0.12011      0.00000     0.37938    0.00051     0.37989
      H   12    0.20866      0.00000     0.29072    0.00062     0.29134
      N   13   -0.34110      0.99976     2.83393    0.00741     3.84110
      C   14   -0.31913      0.99966     2.30632    0.01315     3.31913
      P   15    1.20879      4.99924     1.22434    0.06763     6.29121
      O   16   -0.48213      0.99987     3.46827    0.01399     4.48213
      O   17   -0.50604      0.99987     3.49018    0.01600     4.50604
      O   18   -0.50620      0.99986     3.49183    0.01450     4.50620
      H   19    0.28104      0.00000     0.21694    0.00202     0.21896
      H   20    0.20908      0.00000     0.29024    0.00068     0.29092
      H   21    0.12623      0.00000     0.37330    0.00046     0.37377
      H   22    0.12560      0.00000     0.37391    0.00049     0.37440
      H   23    0.21261      0.00000     0.28672    0.00067     0.28739
      H   24    0.27181      0.00000     0.22724    0.00095     0.22819
 =======================================================================
   * Total *    1.00000     28.99529    41.72247    0.28223    71.00000

                      1                      2                      3
                      A                      A                      A
 Frequencies --     39.4957                72.8623                89.5851
 Red. masses --      6.6977                 3.5765                 5.3134
 Frc consts  --      0.0062                 0.0112                 0.0251
 IR Inten    --      7.2643                 1.3137                 4.6116

                      4                      5                      6
                      A                      A                      A
 Frequencies --    103.7697               134.7308               142.1370
 Red. masses --      7.0024                 3.6328                 3.6559
 Frc consts  --      0.0444                 0.0389                 0.0435
 IR Inten    --      1.0041                14.5926                12.8572

                      7                      8                      9
                      A                      A                      A
 Frequencies --    161.3419               186.5811               201.1129
 Red. masses --      3.1961                 2.2710                 1.9863
 Frc consts  --      0.0490                 0.0466                 0.0473
 IR Inten    --     16.2549                76.1815                27.9621

                     10                     11                     12
                      A                      A                      A
 Frequencies --    211.0603               224.8501               246.5166
 Red. masses --      3.4691                 6.3592                 1.9735
 Frc consts  --      0.0911                 0.1894                 0.0707
 IR Inten    --      2.4198                 8.3959                81.7659

                     13                     14                     15
                      A                      A                      A
 Frequencies --    289.1636               293.1051               316.0410
 Red. masses --      6.2965                 3.7619                 3.6577
 Frc consts  --      0.3102                 0.1904                 0.2153
 IR Inten    --     13.3695                 8.3852                 3.8504

                     16                     17                     18
                      A                      A                      A
 Frequencies --    332.7969               353.2916               407.7579
 Red. masses --      2.9930                 3.4733                 5.2632
 Frc consts  --      0.1953                 0.2554                 0.5156
 IR Inten    --     15.7077                17.5420                22.6000

                     19                     20                     21
                      A                      A                      A
 Frequencies --    427.5236               452.5782               469.9891
 Red. masses --      5.5687                 7.0218                 8.3712
 Frc consts  --      0.5997                 0.8474                 1.0895
 IR Inten    --     37.0168                21.2080                21.8410

                     22                     23                     24
                      A                      A                      A
 Frequencies --    484.5757               510.4348               559.3798
 Red. masses --      6.2681                 5.3484                 8.1055
 Frc consts  --      0.8672                 0.8210                 1.4943
 IR Inten    --     33.7747                47.7341                38.3896

                     25                     26                     27
                      A                      A                      A
 Frequencies --    582.3049               588.9438               621.5140
 Red. masses --      7.7685                 1.3153                 1.3496
 Frc consts  --      1.5520                 0.2688                 0.3072
 IR Inten    --    106.2518                28.4287                53.8105

                     28                     29                     30
                      A                      A                      A
 Frequencies --    741.7981               751.4881               828.2464
 Red. masses --      2.7662                 3.1918                 1.6546
 Frc consts  --      0.8968                 1.0620                 0.6687
 IR Inten    --     11.4755                13.3602                24.8833

                     31                     32                     33
                      A                      A                      A
 Frequencies --    829.8950               877.0262               895.0225
 Red. masses --      1.5993                 1.1776                 1.5706
 Frc consts  --      0.6490                 0.5337                 0.7413
 IR Inten    --     11.4079                52.2077               348.3755

                     34                     35                     36
                      A                      A                      A
 Frequencies --    920.6770               973.4791              1001.9059
 Red. masses --      2.0723                 3.2834                 4.5046
 Frc consts  --      1.0350                 1.8333                 2.6641
 IR Inten    --    155.2073                76.0359                57.8449

                     37                     38                     39
                      A                      A                      A
 Frequencies --   1006.8832              1030.6482              1060.4196
 Red. masses --      3.6650                 4.4686                 1.3828
 Frc consts  --      2.1892                 2.7967                 0.9162
 IR Inten    --     29.4265                33.6993                66.4564

                     40                     41                     42
                      A                      A                      A
 Frequencies --   1068.9536              1075.1514              1094.9048
 Red. masses --      1.1748                 2.5236                 1.1599
 Frc consts  --      0.7909                 1.7187                 0.8193
 IR Inten    --     75.4065               281.8495                10.9432

                     43                     44                     45
                      A                      A                      A
 Frequencies --   1102.8006              1117.1400              1170.1926
 Red. masses --      3.1196                 1.3647                 3.2776
 Frc consts  --      2.2353                 1.0035                 2.6444
 IR Inten    --    147.7151                73.6663                26.6649

                     46                     47                     48
                      A                      A                      A
 Frequencies --   1224.0715              1245.1449              1271.7402
 Red. masses --      2.0438                 2.5784                 1.4450
 Frc consts  --      1.8043                 2.3552                 1.3769
 IR Inten    --    514.8232                85.2328                28.6596

                     49                     50                     51
                      A                      A                      A
 Frequencies --   1278.9442              1321.5540              1331.8849
 Red. masses --      1.4393                 1.2840                 1.3306
 Frc consts  --      1.3871                 1.3213                 1.3907
 IR Inten    --     77.6712                 6.9604                 7.4968

                     52                     53                     54
                      A                      A                      A
 Frequencies --   1434.5703              1437.6956              1606.5252
 Red. masses --      1.0791                 1.0790                 1.0837
 Frc consts  --      1.3085                 1.3140                 1.6479
 IR Inten    --      7.8780                 5.1578                39.9114

                     55                     56                     57
                      A                      A                      A
 Frequencies --   1619.3613              2845.7866              3070.8809
 Red. masses --      1.0824                 1.0805                 1.0599
 Frc consts  --      1.6723                 5.1558                 5.8889
 IR Inten    --     39.4299              1763.1965                 2.2589

                     58                     59                     60
                      A                      A                      A
 Frequencies --   3076.7370              3134.5062              3144.8028
 Red. masses --      1.0592                 1.1076                 1.1088
 Frc consts  --      5.9074                 6.4119                 6.4610
 IR Inten    --      1.6131                 0.9230                 0.1939

                     61                     62                     63
                      A                      A                      A
 Frequencies --   3462.9588              3470.2648              3546.0457
 Red. masses --      1.0539                 1.0520                 1.0917
 Frc consts  --      7.4465                 7.4641                 8.0882
 IR Inten    --     51.1789                40.2603                71.0254

                     64                     65                     66
                      A                      A                      A
 Frequencies --   3552.0717              3849.0344              3863.3340
 Red. masses --      1.0936                 1.0666                 1.0663
 Frc consts  --      8.1295                 9.3098                 9.3772
 IR Inten    --     63.7900               280.9123               253.5584

 - Thermochemistry -
 -------------------
 Temperature   298.150 Kelvin.  Pressure   1.00000 Atm.
 Atom     1 has atomic number  7 and mass  14.00307

 Molecular mass:   283.93884 amu.
 Principal axes and moments of inertia in atomic units:
                           1         2         3
     Eigenvalues --  1773.301144571.759034849.05516
           X            0.99971  -0.00014  -0.02390
           Y            0.00017   1.00000   0.00147
           Z            0.02390  -0.00147   0.99971
 This molecule is an asymmetric top.
 Rotational symmetry number  1.
 Warning -- assumption of classical behavior for rotation
           may cause significant error
 Rotational temperatures (Kelvin)      0.04884     0.01895     0.01786
 Rotational constants (GHZ):           1.01773     0.39476     0.37218
 Zero-point vibrational energy     459593.2 (Joules/Mol)
                                  109.84542 (Kcal/Mol)
 Warning -- explicit consideration of  26 degrees of freedom as
           vibrations may cause significant error
 Vibrational temperatures:     56.83   104.83   128.89   149.30   193.85
          (Kelvin)            204.50   232.14   268.45   289.36   303.67
                              323.51   354.68   416.04   421.71   454.71
                              478.82   508.31   586.67   615.11   651.16
                              676.21   697.20   734.40   804.82   837.81
                              847.36   894.22  1067.28  1081.22  1191.66
                             1194.03  1261.85  1287.74  1324.65  1400.62
                             1441.52  1448.68  1482.87  1525.71  1537.99
                             1546.90  1575.32  1586.68  1607.32  1683.65
                             1761.17  1791.49  1829.75  1840.12  1901.42
                             1916.29  2064.03  2068.52  2311.43  2329.90
                             4094.45  4418.31  4426.74  4509.86  4524.67
                             4982.43  4992.94  5101.97  5110.64  5537.90
                             5558.48

 Zero-point correction=                           0.175050 (Hartree/Particle)
 Thermal correction to Energy=                    0.190787
 Thermal correction to Enthalpy=                  0.191732
 Thermal correction to Gibbs Free Energy=         0.131631
 Sum of electronic and zero-point Energies=          -2966.707424
 Sum of electronic and thermal Energies=             -2966.691686
 Sum of electronic and thermal Enthalpies=           -2966.690742
 Sum of electronic and thermal Free Energies=        -2966.750843

                     E (Thermal)             CV                S
                      KCal/Mol        Cal/Mol-Kelvin    Cal/Mol-Kelvin
 Total                  119.721             58.031            126.493
 Electronic               0.000              0.000              1.377
 Translational            0.889              2.981             42.829
 Rotational               0.889              2.981             32.042
 Vibrational            117.943             52.069             50.245
 Vibration     1          0.594              1.981              5.284
 Vibration     2          0.599              1.967              4.074
 Vibration     3          0.602              1.957              3.669
 Vibration     4          0.605              1.946              3.382
 Vibration     5          0.613              1.919              2.877
 Vibration     6          0.616              1.911              2.775
 Vibration     7          0.622              1.890              2.534
 Vibration     8          0.632              1.858              2.262
 Vibration     9          0.638              1.838              2.123
 Vibration    10          0.643              1.824              2.034
 Vibration    11          0.650              1.803              1.920
 Vibration    12          0.661              1.769              1.755
 Vibration    13          0.686              1.694              1.479
 Vibration    14          0.688              1.687              1.456
 Vibration    15          0.703              1.643              1.331
 Vibration    16          0.715              1.610              1.246
 Vibration    17          0.729              1.569              1.151
 Vibration    18          0.772              1.453              0.935
 Vibration    19          0.789              1.410              0.867
 Vibration    20          0.811              1.355              0.788
 Vibration    21          0.827              1.317              0.738
 Vibration    22          0.841              1.284              0.698
 Vibration    23          0.866              1.227              0.633
 Vibration    24          0.915              1.119              0.525
 Vibration    25          0.939              1.070              0.481
 Vibration    26          0.946              1.055              0.469

                           ! Non-Optimized Parameters !
 Normal termination of Gaussian 16 at Thu Sep  5 02:45:38 2024.
