 Gaussian 16, Revision C.01,
 Gaussian 16:  ES64L-G16RevC.01  3-Jul-2019

 ----------------------------------------------------------------------
 #UM06/Def2TZVP OPT Freq=Noraman INT(grid=ultrafine) EmpiricalDispersio
 n=GD3 SCF=XQC Pop=NPA
 ----------------------------------------------------------------------

 -----------------------------
 AMPA.a.Mg.CONF1.B3LYP.optfreq
 -----------------------------
 Symbolic Z-matrix:
 Charge =  1 Multiplicity = 1

 SCF Done:  E(UM06) =  -1526.58203054     A.U. after   12 cycles
 SCF Done:  E(UM06) =  -1526.58739250     A.U. after   10 cycles
 SCF Done:  E(UM06) =  -1526.58071734     A.U. after   11 cycles
 SCF Done:  E(UM06) =  -1526.58774913     A.U. after    9 cycles
 SCF Done:  E(UM06) =  -1526.58790495     A.U. after   10 cycles
 SCF Done:  E(UM06) =  -1526.58825736     A.U. after    9 cycles
 SCF Done:  E(UM06) =  -1526.58829711     A.U. after    8 cycles
 SCF Done:  E(UM06) =  -1526.58832112     A.U. after    8 cycles
 SCF Done:  E(UM06) =  -1526.58833165     A.U. after    7 cycles
 SCF Done:  E(UM06) =  -1526.58834468     A.U. after    7 cycles
 SCF Done:  E(UM06) =  -1526.58836040     A.U. after    8 cycles
 SCF Done:  E(UM06) =  -1526.58836377     A.U. after    7 cycles
 SCF Done:  E(UM06) =  -1526.58836594     A.U. after    7 cycles
 SCF Done:  E(UM06) =  -1526.58836658     A.U. after    6 cycles
 SCF Done:  E(UM06) =  -1526.58836726     A.U. after    6 cycles
 SCF Done:  E(UM06) =  -1526.58836801     A.U. after    7 cycles
 SCF Done:  E(UM06) =  -1526.58836860     A.U. after    6 cycles
 SCF Done:  E(UM06) =  -1526.58836900     A.U. after    6 cycles
 SCF Done:  E(UM06) =  -1526.58836907     A.U. after    6 cycles
 Optimization completed.
    -- Stationary point found.
 Normal termination of Gaussian 16 at Thu Sep  5 02:02:31 2024.

 ------------------------------------------------------------------
 #N Geom=AllCheck Guess=TCheck SCRF=Check GenChk UM06/def2TZVP Freq
 ------------------------------------------------------------------

 Structure from the checkpoint file:  "AMPA.a.Mg.CONF1.B3LYP.chk"
 -----------------------------
 AMPA.a.Mg.CONF1.B3LYP.optfreq
 -----------------------------
 Charge =  1 Multiplicity = 1

                         Standard orientation:
 ---------------------------------------------------------------------
 Center     Atomic      Atomic             Coordinates (Angstroms)
 Number     Number       Type             X           Y           Z
 ---------------------------------------------------------------------
      1          7           0        1.597549    1.419559   -1.560118
      2          6           0        2.684971    0.547184   -1.027798
      3         15           0        1.988334   -0.513432    0.279664
      4          8           0        1.195554   -1.644100   -0.282882
      5          8           0        1.188696    0.483251    1.104051
      6          8           0        3.252431   -0.997688    1.079012
      7         12           0        0.054128    1.530518   -0.034756
      8          1           0        3.325713   -1.954704    1.157516
      9          1           0        1.096698    0.908567   -2.285950
     10          1           0        3.166115   -0.035058   -1.815717
     11          1           0        3.443596    1.177613   -0.560365
     12          1           0        2.008935    2.219839   -2.029169
     13          7           0       -1.479301    1.467066    1.548415
     14          6           0       -2.562080    0.535143    1.143969
     15         15           0       -2.028322   -0.441438   -0.287083
     16          8           0       -1.287484   -1.718776    0.122860
     17          8           0       -1.200294    0.502782   -1.109398
     18          8           0       -3.383605   -0.861806   -0.934666
     19          1           0       -3.409471   -1.724262   -1.364519
     20          1           0       -0.896684    1.019669    2.255013
     21          1           0       -2.900129   -0.103097    1.962719
     22          1           0       -3.422610    1.113774    0.801223
     23          1           0       -1.889788    2.277386    1.999750
     24          1           0       -0.259564   -1.752533   -0.039063
 ---------------------------------------------------------------------

 SCF Done:  E(UM06) =  -1526.58836907     A.U. after    1 cycles

 The electronic state is 1-A.
 Alpha  occ. eigenvalues --  -77.48487 -77.44403 -47.09253 -19.38876 -19.35847
 Alpha  occ. eigenvalues --  -19.35812 -19.33881 -19.31285 -19.29598 -14.57506
 Alpha  occ. eigenvalues --  -14.56807 -10.43078 -10.40910  -6.89185  -6.85126
 Alpha  occ. eigenvalues --   -5.01240  -5.01089  -5.00996  -4.97178  -4.97030
 Alpha  occ. eigenvalues --   -4.96940  -3.32479  -2.04003  -2.03624  -2.03564
 Alpha  occ. eigenvalues --   -1.25765  -1.21977  -1.19811  -1.16265  -1.15135
 Alpha  occ. eigenvalues --   -1.10984  -1.08943  -1.07868  -0.87701  -0.85026
 Alpha  occ. eigenvalues --   -0.77921  -0.74237  -0.72246  -0.69659  -0.68987
 Alpha  occ. eigenvalues --   -0.66055  -0.64335  -0.63859  -0.62591  -0.61925
 Alpha  occ. eigenvalues --   -0.60110  -0.59520  -0.57836  -0.56746  -0.56383
 Alpha  occ. eigenvalues --   -0.55900  -0.53571  -0.52854  -0.50672  -0.50109
 Alpha  occ. eigenvalues --   -0.49972  -0.49538  -0.48789  -0.48020  -0.47084
 Alpha  occ. eigenvalues --   -0.46120  -0.43998  -0.43414
 Alpha virt. eigenvalues --   -0.18045  -0.12308  -0.11014  -0.10518  -0.09284
 Alpha virt. eigenvalues --   -0.07428  -0.07282  -0.06437  -0.05388  -0.04841
 Alpha virt. eigenvalues --   -0.03975  -0.03226  -0.02947  -0.02562  -0.02419

  Beta  occ. eigenvalues --  -77.48487 -77.44403 -47.09253 -19.38876 -19.35847
  Beta  occ. eigenvalues --  -19.35812 -19.33881 -19.31285 -19.29598 -14.57506
  Beta  occ. eigenvalues --  -14.56807 -10.43078 -10.40910  -6.89185  -6.85126
  Beta  occ. eigenvalues --   -5.01240  -5.01089  -5.00996  -4.97178  -4.97030
  Beta  occ. eigenvalues --   -4.96940  -3.32479  -2.04003  -2.03624  -2.03564
  Beta  occ. eigenvalues --   -1.25765  -1.21977  -1.19811  -1.16265  -1.15135
  Beta  occ. eigenvalues --   -1.10984  -1.08943  -1.07868  -0.87701  -0.85026
  Beta  occ. eigenvalues --   -0.77921  -0.74237  -0.72246  -0.69659  -0.68987
  Beta  occ. eigenvalues --   -0.66055  -0.64335  -0.63859  -0.62591  -0.61925
  Beta  occ. eigenvalues --   -0.60110  -0.59520  -0.57836  -0.56746  -0.56383
  Beta  occ. eigenvalues --   -0.55900  -0.53571  -0.52854  -0.50672  -0.50109
  Beta  occ. eigenvalues --   -0.49972  -0.49538  -0.48789  -0.48020  -0.47084
  Beta  occ. eigenvalues --   -0.46120  -0.43998  -0.43414
  Beta virt. eigenvalues --   -0.18045  -0.12308  -0.11014  -0.10518  -0.09284
  Beta virt. eigenvalues --   -0.07428  -0.07282  -0.06437  -0.05388  -0.04841
  Beta virt. eigenvalues --   -0.03975  -0.03226  -0.02947  -0.02562  -0.02419

 Mulliken charges and spin densities:
               1          2
     1  N   -0.546875   0.000000
     2  C   -0.189062   0.000000
     3  P    0.803707   0.000000
     4  O   -0.577334   0.000000
     5  O   -0.587186   0.000000
     6  O   -0.484289   0.000000
     7  Mg   0.932079   0.000000
     8  H    0.377010   0.000000
     9  H    0.299094   0.000000
    10  H    0.161052   0.000000
    11  H    0.165510   0.000000
    12  H    0.277246   0.000000
    13  N   -0.550839   0.000000
    14  C   -0.167973   0.000000
    15  P    0.824238   0.000000
    16  O   -0.456121   0.000000
    17  O   -0.545803   0.000000
    18  O   -0.471046   0.000000
    19  H    0.385900   0.000000
    20  H    0.308226   0.000000
    21  H    0.172500   0.000000
    22  H    0.173368   0.000000
    23  H    0.278345   0.000000
    24  H    0.418251   0.000000
 Sum of Mulliken charges =   1.00000   0.00000

 Dipole moment (field-independent basis, Debye):
    X=             -1.5263    Y=              5.8064    Z=             -0.4943  Tot=              6.0240
 Quadrupole moment (field-independent basis, Debye-Ang):
   XX=            -59.2366   YY=            -65.1840   ZZ=            -75.5099
   XY=              1.1926   XZ=            -10.9886   YZ=              0.5387

  Exact polarizability:     116.956       0.427      99.720      -1.802       0.404      93.568
 Approx polarizability:     140.934       0.989     139.708       1.105       0.898     128.018

 Summary of Natural Population Analysis:

                                       Natural Population
                Natural  -----------------------------------------------
    Atom  No    Charge         Core      Valence    Rydberg      Total
 -----------------------------------------------------------------------
      N    1   -0.47565      0.99981     2.96723    0.00861     3.97565
      C    2   -0.31778      0.99966     2.30434    0.01377     3.31778
      P    3    1.19981      4.99936     1.22649    0.07433     6.30019
      O    4   -0.56859      0.99985     3.55479    0.01395     4.56859
      O    5   -0.64520      0.99990     3.63003    0.01528     4.64520
      O    6   -0.49148      0.99988     3.47766    0.01393     4.49148
     Mg    7    0.90433      4.99902     0.08633    0.01032     5.09567
      H    8    0.26549      0.00000     0.23355    0.00096     0.23451
      H    9    0.20262      0.00000     0.29659    0.00079     0.29738
      H   10    0.11532      0.00000     0.38414    0.00054     0.38468
      H   11    0.11752      0.00000     0.38197    0.00050     0.38248
      H   12    0.20003      0.00000     0.29907    0.00090     0.29997
      N   13   -0.47009      0.99981     2.96146    0.00882     3.97009
      C   14   -0.31832      0.99966     2.30502    0.01364     3.31832
      P   15    1.20508      4.99934     1.22686    0.06873     6.29492
      O   16   -0.51190      0.99986     3.49745    0.01459     4.51190
      O   17   -0.62298      0.99989     3.60717    0.01592     4.62298
      O   18   -0.48744      0.99988     3.47359    0.01397     4.48744
      H   19    0.26992      0.00000     0.22911    0.00097     0.23008
      H   20    0.20629      0.00000     0.29294    0.00076     0.29371
      H   21    0.12075      0.00000     0.37874    0.00051     0.37925
      H   22    0.12347      0.00000     0.37605    0.00047     0.37653
      H   23    0.20104      0.00000     0.29809    0.00087     0.29896
      H   24    0.27778      0.00000     0.22020    0.00203     0.22222
 =======================================================================
   * Total *    0.50000     24.99593    37.70888    0.29519    63.00000

                      1                      2                      3
                      A                      A                      A
 Frequencies --     64.4653                76.0872                93.7452
 Red. masses --      4.8459                 6.1497                 5.7280
 Frc consts  --      0.0119                 0.0210                 0.0297
 IR Inten    --      2.7886                 3.2329                13.1715

                      4                      5                      6
                      A                      A                      A
 Frequencies --    127.8474               138.4415               145.9348
 Red. masses --      5.1198                 7.6536                 2.8520
 Frc consts  --      0.0493                 0.0864                 0.0358
 IR Inten    --      9.5254                 8.4487                 4.4019

                      7                      8                      9
                      A                      A                      A
 Frequencies --    171.4387               196.4518               212.6403
 Red. masses --      3.1514                 3.4348                 2.8204
 Frc consts  --      0.0546                 0.0781                 0.0751
 IR Inten    --     16.4751                29.6441                38.5575

                     10                     11                     12
                      A                      A                      A
 Frequencies --    224.5235               242.4405               283.3874
 Red. masses --      1.9345                 2.6003                 2.1487
 Frc consts  --      0.0575                 0.0901                 0.1017
 IR Inten    --     27.1486                35.1486                78.3105

                     13                     14                     15
                      A                      A                      A
 Frequencies --    301.8504               319.5502               331.1185
 Red. masses --      5.7644                 2.8959                 4.1217
 Frc consts  --      0.3094                 0.1742                 0.2663
 IR Inten    --     73.0640                21.4493                 0.9128

                     16                     17                     18
                      A                      A                      A
 Frequencies --    356.8507               358.6509               397.4931
 Red. masses --      3.8793                 3.2666                 4.5607
 Frc consts  --      0.2911                 0.2476                 0.4246
 IR Inten    --      7.8485                 0.9378                31.6451

                     19                     20                     21
                      A                      A                      A
 Frequencies --    416.8655               452.4268               475.2040
 Red. masses --      6.0829                 5.6298                 5.6639
 Frc consts  --      0.6228                 0.6790                 0.7536
 IR Inten    --     28.4432                12.7522                15.7112

                     22                     23                     24
                      A                      A                      A
 Frequencies --    489.8874               496.0108               551.0234
 Red. masses --      4.6628                 4.7617                 1.7138
 Frc consts  --      0.6593                 0.6902                 0.3066
 IR Inten    --    103.3818                56.0235                51.9658

                     25                     26                     27
                      A                      A                      A
 Frequencies --    564.8561               594.8138               622.0178
 Red. masses --      1.9726                 2.9829                 8.3801
 Frc consts  --      0.3708                 0.6218                 1.9103
 IR Inten    --     40.9963               184.7482               144.0582

                     28                     29                     30
                      A                      A                      A
 Frequencies --    734.2585               742.7402               826.9686
 Red. masses --      2.9696                 3.4782                 1.6929
 Frc consts  --      0.9433                 1.1305                 0.6821
 IR Inten    --     20.9865                28.1642                13.5044

                     31                     32                     33
                      A                      A                      A
 Frequencies --    836.7541               902.2297               928.4688
 Red. masses --      1.6011                 2.0132                 2.6739
 Frc consts  --      0.6605                 0.9655                 1.3581
 IR Inten    --     31.0884               325.9119               166.7492

                     34                     35                     36
                      A                      A                      A
 Frequencies --    983.9380              1002.4728              1008.0923
 Red. masses --      2.3376                 1.5834                 4.1135
 Frc consts  --      1.3334                 0.9375                 2.4630
 IR Inten    --     38.5046                41.3989                34.1245

                     37                     38                     39
                      A                      A                      A
 Frequencies --   1008.9339              1025.4540              1082.3710
 Red. masses --      1.6363                 3.7559                 1.3238
 Frc consts  --      0.9814                 2.3270                 0.9138
 IR Inten    --     91.7250                60.6851                58.9548

                     40                     41                     42
                      A                      A                      A
 Frequencies --   1086.7501              1096.9800              1114.8745
 Red. masses --      1.1040                 2.7727                 1.3319
 Frc consts  --      0.7682                 1.9658                 0.9754
 IR Inten    --     50.1741               437.1371                67.1527

                     43                     44                     45
                      A                      A                      A
 Frequencies --   1130.6908              1145.9864              1191.6286
 Red. masses --      2.6587                 1.4520                 4.9411
 Frc consts  --      2.0026                 1.1235                 4.1339
 IR Inten    --    203.1135                38.1952               100.5618

                     46                     47                     48
                      A                      A                      A
 Frequencies --   1240.6520              1274.7827              1287.3807
 Red. masses --      6.2547                 1.2220                 1.3250
 Frc consts  --      5.6723                 1.1700                 1.2938
 IR Inten    --    485.0316               100.3885                15.1873

                     49                     50                     51
                      A                      A                      A
 Frequencies --   1294.3867              1349.0663              1356.6583
 Red. masses --      1.4356                 1.3286                 1.3070
 Frc consts  --      1.4171                 1.4247                 1.4173
 IR Inten    --     83.6425                 3.8200                 5.0826

                     52                     53                     54
                      A                      A                      A
 Frequencies --   1438.1219              1445.1375              1621.8421
 Red. masses --      1.0772                 1.0761                 1.0768
 Frc consts  --      1.3126                 1.3241                 1.6688
 IR Inten    --     12.2924                11.6101                45.4429

                     55                     56                     57
                      A                      A                      A
 Frequencies --   1626.1996              2412.1576              3061.5499
 Red. masses --      1.0774                 1.1044                 1.0601
 Frc consts  --      1.6788                 3.7862                 5.8541
 IR Inten    --     47.5807              2833.0127                 2.8907

                     58                     59                     60
                      A                      A                      A
 Frequencies --   3062.7287              3121.7740              3126.4734
 Red. masses --      1.0594                 1.1064                 1.1074
 Frc consts  --      5.8550                 6.3528                 6.3779
 IR Inten    --      3.1315                 0.6100                 0.8360

                     61                     62                     63
                      A                      A                      A
 Frequencies --   3451.0223              3451.1428              3535.5299
 Red. masses --      1.0561                 1.0553                 1.0879
 Frc consts  --      7.4106                 7.4058                 8.0123
 IR Inten    --     33.6067                22.8818                42.4008

                     64                     65                     66
                      A                      A                      A
 Frequencies --   3541.7529              3851.7820              3865.2036
 Red. masses --      1.0878                 1.0664                 1.0662
 Frc consts  --      8.0399                 9.3218                 9.3852
 IR Inten    --     51.3260               243.7987               223.1602

 - Thermochemistry -
 -------------------
 Temperature   298.150 Kelvin.  Pressure   1.00000 Atm.
 Atom     1 has atomic number  7 and mass  14.00307

 Molecular mass:   244.99428 amu.
 Principal axes and moments of inertia in atomic units:
                           1         2         3
     Eigenvalues --  1750.574374314.624714609.91156
           X            0.99966   0.00105  -0.02608
           Y           -0.00089   0.99998   0.00630
           Z            0.02608  -0.00627   0.99964
 This molecule is an asymmetric top.
 Rotational symmetry number  1.
 Warning -- assumption of classical behavior for rotation
           may cause significant error
 Rotational temperatures (Kelvin)      0.04948     0.02007     0.01879
 Rotational constants (GHZ):           1.03094     0.41828     0.39149
 Zero-point vibrational energy     460388.6 (Joules/Mol)
                                  110.03551 (Kcal/Mol)
 Warning -- explicit consideration of  26 degrees of freedom as
           vibrations may cause significant error
 Vibrational temperatures:     92.75   109.47   134.88   183.94   199.19
          (Kelvin)            209.97   246.66   282.65   305.94   323.04
                              348.82   407.73   434.30   459.76   476.41
                              513.43   516.02   571.90   599.78   650.94
                              683.71   704.84   713.65   792.80   812.70
                              855.80   894.94  1056.43  1068.64  1189.82
                             1203.90  1298.11  1335.86  1415.67  1442.33
                             1450.42  1451.63  1475.40  1557.29  1563.59
                             1578.31  1604.06  1626.81  1648.82  1714.49
                             1785.02  1834.13  1852.25  1862.33  1941.01
                             1951.93  2069.14  2079.23  2333.47  2339.74
                             3470.56  4404.89  4406.58  4491.54  4498.30
                             4965.25  4965.42  5086.84  5095.79  5541.86
                             5561.17

 Zero-point correction=                           0.175353 (Hartree/Particle)
 Thermal correction to Energy=                    0.190709
 Thermal correction to Enthalpy=                  0.191653
 Thermal correction to Gibbs Free Energy=         0.133838
 Sum of electronic and zero-point Energies=          -1526.413016
 Sum of electronic and thermal Energies=             -1526.397660
 Sum of electronic and thermal Enthalpies=           -1526.396716
 Sum of electronic and thermal Free Energies=        -1526.454531

                     E (Thermal)             CV                S
                      KCal/Mol        Cal/Mol-Kelvin    Cal/Mol-Kelvin
 Total                  119.672             57.390            121.682
 Electronic               0.000              0.000              0.000
 Translational            0.889              2.981             42.389
 Rotational               0.889              2.981             31.921
 Vibrational            117.894             51.429             47.372
 Vibration     1          0.597              1.971              4.316
 Vibration     2          0.599              1.965              3.989
 Vibration     3          0.603              1.954              3.580
 Vibration     4          0.611              1.925              2.978
 Vibration     5          0.614              1.915              2.825
 Vibration     6          0.617              1.907              2.725
 Vibration     7          0.626              1.878              2.420
 Vibration     8          0.636              1.845              2.166
 Vibration     9          0.644              1.822              2.021
 Vibration    10          0.649              1.804              1.922
 Vibration    11          0.659              1.775              1.785
 Vibration    12          0.682              1.704              1.513
 Vibration    13          0.694              1.670              1.407
 Vibration    14          0.705              1.636              1.312
 Vibration    15          0.713              1.613              1.255
 Vibration    16          0.732              1.561              1.136
 Vibration    17          0.733              1.557              1.128
 Vibration    18          0.764              1.476              0.972
 Vibration    19          0.780              1.434              0.903
 Vibration    20          0.811              1.356              0.788
 Vibration    21          0.832              1.305              0.723
 Vibration    22          0.846              1.272              0.684
 Vibration    23          0.852              1.259              0.668
 Vibration    24          0.906              1.137              0.542
 Vibration    25          0.921              1.107              0.514
 Vibration    26          0.953              1.043              0.459

                           ! Non-Optimized Parameters !
 Normal termination of Gaussian 16 at Thu Sep  5 02:25:05 2024.
