 Gaussian 16, Revision C.01,
 Gaussian 16:  ES64L-G16RevC.01  3-Jul-2019

 ----------------------------------------------------------------------
 #UM06/Def2TZVP OPT Freq=Noraman INT(grid=ultrafine) EmpiricalDispersio
 n=GD3 SCF=XQC Pop=NPA
 ----------------------------------------------------------------------

 -----------------------------
 AMPA.a.Mn.CONF1.B3LYP.optfreq
 -----------------------------
 Symbolic Z-matrix:
 Charge =  1 Multiplicity = 6

 SCF Done:  E(UM06) =  -2477.44002083     A.U. after   18 cycles
 SCF Done:  E(UM06) =  -2477.38571474     A.U. after   16 cycles
 SCF Done:  E(UM06) =  -2477.43983207     A.U. after   14 cycles
 SCF Done:  E(UM06) =  -2477.44379573     A.U. after   10 cycles
 SCF Done:  E(UM06) =  -2477.44599021     A.U. after   12 cycles
 SCF Done:  E(UM06) =  -2477.43918691     A.U. after   12 cycles
 SCF Done:  E(UM06) =  -2477.44599313     A.U. after   12 cycles
 SCF Done:  E(UM06) =  -2477.44596608     A.U. after   13 cycles
 SCF Done:  E(UM06) =  -2477.44586545     A.U. after   12 cycles
 SCF Done:  E(UM06) =  -2477.44557593     A.U. after   12 cycles
 SCF Done:  E(UM06) =  -2477.44660601     A.U. after    9 cycles
 SCF Done:  E(UM06) =  -2477.44660854     A.U. after    9 cycles
 SCF Done:  E(UM06) =  -2477.44661189     A.U. after    9 cycles
 SCF Done:  E(UM06) =  -2477.44661439     A.U. after   10 cycles
 SCF Done:  E(UM06) =  -2477.44661544     A.U. after    8 cycles
 SCF Done:  E(UM06) =  -2477.44661563     A.U. after    6 cycles
 SCF Done:  E(UM06) =  -2477.44661576     A.U. after    6 cycles
 SCF Done:  E(UM06) =  -2477.44661582     A.U. after    6 cycles
 SCF Done:  E(UM06) =  -2477.44661592     A.U. after    6 cycles
 Optimization completed.
    -- Stationary point found.
 Normal termination of Gaussian 16 at Thu Sep  5 02:43:42 2024.

 ------------------------------------------------------------------
 #N Geom=AllCheck Guess=TCheck SCRF=Check GenChk UM06/def2TZVP Freq
 ------------------------------------------------------------------

 Structure from the checkpoint file:  "AMPA.a.Mn.CONF1.B3LYP.chk"
 -----------------------------
 AMPA.a.Mn.CONF1.B3LYP.optfreq
 -----------------------------
 Charge =  1 Multiplicity = 6

                         Standard orientation:
 ---------------------------------------------------------------------
 Center     Atomic      Atomic             Coordinates (Angstroms)
 Number     Number       Type             X           Y           Z
 ---------------------------------------------------------------------
      1          7           0       -1.641947   -1.298647   -1.530638
      2          6           0       -2.712158   -0.416603   -0.985227
      3         15           0       -1.989054    0.681838    0.275863
      4          8           0       -1.181156    1.775500   -0.333448
      5          8           0       -1.198615   -0.287599    1.149314
      6          8           0       -3.246787    1.209532    1.056387
      7         25           0       -0.056435   -1.442093   -0.015110
      8          1           0       -3.298537    2.168884    1.123587
      9          1           0       -1.151616   -0.805552   -2.275630
     10          1           0       -3.214919    0.147984   -1.772773
     11          1           0       -3.456503   -1.037061   -0.482971
     12          1           0       -2.056152   -2.117880   -1.962750
     13          7           0        1.520878   -1.325881    1.550908
     14          6           0        2.602532   -0.411378    1.109776
     15         15           0        2.044550    0.589957   -0.294895
     16          8           0        1.287845    1.842874    0.160264
     17          8           0        1.226372   -0.335232   -1.151348
     18          8           0        3.396396    1.042811   -0.927533
     19          1           0        3.411325    1.908115   -1.352087
     20          1           0        0.964575   -0.874434    2.275553
     21          1           0        2.978949    0.215765    1.920532
     22          1           0        3.439855   -1.003396    0.734089
     23          1           0        1.925803   -2.152866    1.976171
     24          1           0        0.268448    1.882339   -0.038766
 ---------------------------------------------------------------------

 SCF Done:  E(UM06) =  -2477.44661592     A.U. after    1 cycles

 The electronic state is 6-A.
 Alpha  occ. eigenvalues -- -235.88511 -77.48627 -77.44757 -27.69497 -23.69351
 Alpha  occ. eigenvalues --  -23.69057 -23.68994 -19.38972 -19.36077 -19.36014
 Alpha  occ. eigenvalues --  -19.34538 -19.32384 -19.29875 -14.58363 -14.57701
 Alpha  occ. eigenvalues --  -10.43327 -10.41263  -6.89323  -6.85479  -5.01377
 Alpha  occ. eigenvalues --   -5.01229  -5.01139  -4.97530  -4.97389  -4.97290
 Alpha  occ. eigenvalues --   -3.50150  -2.34687  -2.34006  -2.33907  -1.25889
 Alpha  occ. eigenvalues --   -1.22295  -1.19985  -1.16490  -1.15585  -1.11396
 Alpha  occ. eigenvalues --   -1.09457  -1.08430  -0.88008  -0.85460  -0.78151
 Alpha  occ. eigenvalues --   -0.74632  -0.72447  -0.70185  -0.69576  -0.66823
 Alpha  occ. eigenvalues --   -0.65117  -0.64484  -0.63017  -0.62438  -0.61094
 Alpha  occ. eigenvalues --   -0.60194  -0.58819  -0.57334  -0.56953  -0.56544
 Alpha  occ. eigenvalues --   -0.55028  -0.54577  -0.53616  -0.53298  -0.51787
 Alpha  occ. eigenvalues --   -0.51389  -0.51211  -0.49961  -0.49717  -0.48909
 Alpha  occ. eigenvalues --   -0.48234  -0.46878  -0.45967  -0.44929  -0.44146
 Alpha  occ. eigenvalues --   -0.42790  -0.40380
 Alpha virt. eigenvalues --   -0.18459  -0.12160  -0.10683  -0.09819  -0.08195
 Alpha virt. eigenvalues --   -0.07406  -0.06909  -0.06313  -0.05555  -0.04505
 Alpha virt. eigenvalues --   -0.03823  -0.03139  -0.02748  -0.02483  -0.01509

  Beta  occ. eigenvalues -- -235.88364 -77.48622 -77.44753 -27.63320 -23.63330
  Beta  occ. eigenvalues --  -23.62996 -23.62948 -19.38966 -19.36072 -19.36010
  Beta  occ. eigenvalues --  -19.34379 -19.32188 -19.29867 -14.58332 -14.57674
  Beta  occ. eigenvalues --  -10.43324 -10.41260  -6.89318  -6.85475  -5.01371
  Beta  occ. eigenvalues --   -5.01223  -5.01129  -4.97525  -4.97380  -4.97285
  Beta  occ. eigenvalues --   -3.27140  -2.10312  -2.09483  -2.09459  -1.25830
  Beta  occ. eigenvalues --   -1.22216  -1.19939  -1.16189  -1.15292  -1.11220
  Beta  occ. eigenvalues --   -1.09370  -1.08334  -0.87961  -0.85408  -0.78077
  Beta  occ. eigenvalues --   -0.74510  -0.72392  -0.69992  -0.69374  -0.66351
  Beta  occ. eigenvalues --   -0.64702  -0.63839  -0.62802  -0.62152  -0.60461
  Beta  occ. eigenvalues --   -0.59723  -0.58112  -0.56830  -0.56551  -0.56254
  Beta  occ. eigenvalues --   -0.53712  -0.53015  -0.51358  -0.50791  -0.50142
  Beta  occ. eigenvalues --   -0.49789  -0.49151  -0.48859  -0.47269  -0.46348
  Beta  occ. eigenvalues --   -0.44345  -0.43746
  Beta virt. eigenvalues --   -0.21965  -0.18788  -0.18240  -0.17054  -0.16025
  Beta virt. eigenvalues --   -0.12969  -0.11912  -0.09861  -0.08763  -0.07854
  Beta virt. eigenvalues --   -0.07241  -0.06503  -0.05519  -0.04733  -0.04189

 Mulliken charges and spin densities:
               1          2
     1  N   -0.468131  -0.006966
     2  C   -0.186436  -0.006810
     3  P    0.801985   0.010102
     4  O   -0.575230   0.002203
     5  O   -0.557200   0.054450
     6  O   -0.484537   0.001745
     7  Mn   0.744919   4.893903
     8  H    0.378003   0.000313
     9  H    0.288591   0.002100
    10  H    0.157511  -0.000078
    11  H    0.167546   0.001691
    12  H    0.280095   0.003534
    13  N   -0.473006  -0.005813
    14  C   -0.175663  -0.003861
    15  P    0.828344   0.007655
    16  O   -0.454893   0.001872
    17  O   -0.514457   0.035936
    18  O   -0.471011   0.001661
    19  H    0.386164   0.000133
    20  H    0.295976   0.001967
    21  H    0.169148   0.000167
    22  H    0.174749   0.001161
    23  H    0.281583   0.003010
    24  H    0.405950  -0.000074
 Sum of Mulliken charges =   1.00000   5.00000

 Dipole moment (field-independent basis, Debye):
    X=              1.4388    Y=             -4.6017    Z=             -0.3515  Tot=              4.8342
 Quadrupole moment (field-independent basis, Debye-Ang):
   XX=            -62.9686   YY=            -72.7958   ZZ=            -81.0831
   XY=              1.4989   XZ=             11.6604   YZ=             -0.8718

  Exact polarizability:     127.819      -0.024     108.589       2.573      -0.119      97.559
 Approx polarizability:     153.862       0.360     150.820      -1.320      -0.259     138.378

 Summary of Natural Population Analysis:

                                       Natural Population
                Natural  -----------------------------------------------
    Atom  No    Charge         Core      Valence    Rydberg      Total
 -----------------------------------------------------------------------
      N    1   -0.41874      0.99981     2.91199    0.00694     3.91874
      C    2   -0.31152      0.99965     2.29933    0.01253     3.31152
      P    3    1.20538      4.99919     1.22330    0.07213     6.29462
      O    4   -0.56421      0.99985     3.55048    0.01387     4.56421
      O    5   -0.52590      0.99989     3.51285    0.01316     4.52590
      O    6   -0.48918      0.99988     3.47555    0.01375     4.48918
     Mn    7    3.01573      8.99692     0.47960    0.00775     9.48427
      H    8    0.26592      0.00000     0.23313    0.00095     0.23408
      H    9    0.20761      0.00000     0.29175    0.00064     0.29239
      H   10    0.11693      0.00000     0.38254    0.00053     0.38307
      H   11    0.11861      0.00000     0.38092    0.00047     0.38139
      H   12    0.20552      0.00000     0.29375    0.00073     0.29448
      N   13   -0.41682      0.99981     2.90972    0.00730     3.91682
      C   14   -0.31204      0.99965     2.29986    0.01253     3.31204
      P   15    1.21116      4.99918     1.22272    0.06693     6.28884
      O   16   -0.50984      0.99986     3.49548    0.01450     4.50984
      O   17   -0.52356      0.99988     3.50948    0.01420     4.52356
      O   18   -0.48537      0.99988     3.47169    0.01380     4.48537
      H   19    0.27004      0.00000     0.22900    0.00096     0.22996
      H   20    0.21047      0.00000     0.28893    0.00061     0.28953
      H   21    0.12193      0.00000     0.37757    0.00050     0.37807
      H   22    0.12417      0.00000     0.37538    0.00046     0.37583
      H   23    0.20619      0.00000     0.29309    0.00071     0.29381
      H   24    0.27751      0.00000     0.22044    0.00205     0.22249
 =======================================================================
   * Total *    3.00000     28.99346    37.72854    0.27800    67.00000

                      1                      2                      3
                      A                      A                      A
 Frequencies --     56.5309                75.9302                79.8814
 Red. masses --      5.4188                 6.0483                 8.3894
 Frc consts  --      0.0102                 0.0205                 0.0315
 IR Inten    --      2.8980                 4.5332                 5.7532

                      4                      5                      6
                      A                      A                      A
 Frequencies --    117.0851               125.0458               134.6485
 Red. masses --      3.9801                 3.6408                 5.5975
 Frc consts  --      0.0321                 0.0335                 0.0598
 IR Inten    --      9.5549                 3.4651                 1.9046

                      7                      8                      9
                      A                      A                      A
 Frequencies --    161.4234               189.2761               203.8948
 Red. masses --      3.2195                 4.3381                 3.2197
 Frc consts  --      0.0494                 0.0916                 0.0789
 IR Inten    --     14.5303                23.2333                33.9332

                     10                     11                     12
                      A                      A                      A
 Frequencies --    217.9663               221.4541               249.4953
 Red. masses --      2.1991                 3.0984                 4.6620
 Frc consts  --      0.0616                 0.0895                 0.1710
 IR Inten    --     19.9974                23.0161                99.4477

                     13                     14                     15
                      A                      A                      A
 Frequencies --    265.8345               290.0321               321.3427
 Red. masses --      2.6273                 3.2774                 3.5817
 Frc consts  --      0.1094                 0.1624                 0.2179
 IR Inten    --     34.7964                11.7739                 6.9389

                     16                     17                     18
                      A                      A                      A
 Frequencies --    332.4740               345.4553               391.8643
 Red. masses --      2.5397                 2.8600                 4.5950
 Frc consts  --      0.1654                 0.2011                 0.4157
 IR Inten    --      2.6555                16.7920                21.5550

                     19                     20                     21
                      A                      A                      A
 Frequencies --    405.5991               446.7013               466.2488
 Red. masses --      5.3272                 5.4524                 6.0187
 Frc consts  --      0.5164                 0.6410                 0.7709
 IR Inten    --     36.9052                16.9318                 2.0170

                     22                     23                     24
                      A                      A                      A
 Frequencies --    474.1197               487.8825               546.1906
 Red. masses --      3.9755                 7.6595                 1.8180
 Frc consts  --      0.5265                 1.0742                 0.3195
 IR Inten    --     31.5712               114.3558                60.1922

                     25                     26                     27
                      A                      A                      A
 Frequencies --    561.7029               567.2978               591.3129
 Red. masses --      1.6834                 3.3347                 3.7926
 Frc consts  --      0.3129                 0.6323                 0.7813
 IR Inten    --     30.8976               135.2548               129.8649

                     28                     29                     30
                      A                      A                      A
 Frequencies --    730.9833               739.0308               827.4981
 Red. masses --      2.9720                 3.3863                 1.6606
 Frc consts  --      0.9357                 1.0897                 0.6700
 IR Inten    --     17.0019                20.1838                12.2673

                     31                     32                     33
                      A                      A                      A
 Frequencies --    836.5798               898.7506               925.2451
 Red. masses --      1.5904                 2.0303                 2.6201
 Frc consts  --      0.6558                 0.9662                 1.3216
 IR Inten    --     29.9751               318.6851               173.6918

                     34                     35                     36
                      A                      A                      A
 Frequencies --    980.5307               999.7767              1008.4453
 Red. masses --      2.3853                 1.6771                 1.5618
 Frc consts  --      1.3512                 0.9877                 0.9358
 IR Inten    --     49.0479                41.8023                92.3260

                     37                     38                     39
                      A                      A                      A
 Frequencies --   1009.3660              1025.5725              1076.6106
 Red. masses --      3.9789                 3.8721                 1.2353
 Frc consts  --      2.3884                 2.3995                 0.8436
 IR Inten    --     24.4972                58.2349               176.8944

                     40                     41                     42
                      A                      A                      A
 Frequencies --   1078.1507              1092.9057              1108.1551
 Red. masses --      1.1196                 3.3749                 1.8182
 Frc consts  --      0.7668                 2.3751                 1.3155
 IR Inten    --     13.5284               351.4883                96.5051

                     43                     44                     45
                      A                      A                      A
 Frequencies --   1116.9883              1140.6990              1179.0501
 Red. masses --      1.7763                 1.3769                 5.2719
 Frc consts  --      1.3058                 1.0556                 4.3180
 IR Inten    --     94.5845                76.3375                67.0692

                     46                     47                     48
                      A                      A                      A
 Frequencies --   1236.5992              1264.3152              1283.9950
 Red. masses --      5.9936                 1.2235                 1.3378
 Frc consts  --      5.4000                 1.1523                 1.2995
 IR Inten    --    519.7876                96.1621                19.7139

                     49                     50                     51
                      A                      A                      A
 Frequencies --   1290.5070              1346.6420              1354.1964
 Red. masses --      1.4014                 1.3355                 1.3152
 Frc consts  --      1.3751                 1.4269                 1.4210
 IR Inten    --     63.3068                 4.9156                 5.9376

                     52                     53                     54
                      A                      A                      A
 Frequencies --   1437.1145              1442.9509              1615.8877
 Red. masses --      1.0774                 1.0765                 1.0781
 Frc consts  --      1.3110                 1.3206                 1.6586
 IR Inten    --     11.1299                10.3879                45.8327

                     55                     56                     57
                      A                      A                      A
 Frequencies --   1622.1076              2440.1620              3061.0018
 Red. masses --      1.0783                 1.1025                 1.0600
 Frc consts  --      1.6717                 3.8679                 5.8518
 IR Inten    --     46.6456              2570.3008                 2.5088

                     58                     59                     60
                      A                      A                      A
 Frequencies --   3062.4227              3121.9813              3126.9690
 Red. masses --      1.0594                 1.1064                 1.1074
 Frc consts  --      5.8539                 6.3538                 6.3794
 IR Inten    --      2.6365                 0.7900                 0.6231

                     61                     62                     63
                      A                      A                      A
 Frequencies --   3451.4259              3452.4375              3537.4172
 Red. masses --      1.0548                 1.0554                 1.0889
 Frc consts  --      7.4028                 7.4120                 8.0282
 IR Inten    --     34.8002                27.1803                48.9827

                     64                     65                     66
                      A                      A                      A
 Frequencies --   3542.6970              3852.1732              3864.1882
 Red. masses --      1.0888                 1.0664                 1.0663
 Frc consts  --      8.0516                 9.3239                 9.3805
 IR Inten    --     56.5420               252.8352               236.2759

 - Thermochemistry -
 -------------------
 Temperature   298.150 Kelvin.  Pressure   1.00000 Atm.
 Atom     1 has atomic number  7 and mass  14.00307

 Molecular mass:   275.94728 amu.
 Principal axes and moments of inertia in atomic units:
                           1         2         3
     Eigenvalues --  2027.459164358.098224938.49926
           X            0.99967   0.00043   0.02558
           Y           -0.00032   0.99999  -0.00407
           Z           -0.02558   0.00406   0.99966
 This molecule is an asymmetric top.
 Rotational symmetry number  1.
 Warning -- assumption of classical behavior for rotation
           may cause significant error
 Rotational temperatures (Kelvin)      0.04272     0.01987     0.01754
 Rotational constants (GHZ):           0.89015     0.41411     0.36544
 Zero-point vibrational energy     457620.8 (Joules/Mol)
                                  109.37399 (Kcal/Mol)
 Warning -- explicit consideration of  27 degrees of freedom as
           vibrations may cause significant error
 Vibrational temperatures:     81.34   109.25   114.93   168.46   179.91
          (Kelvin)            193.73   232.25   272.33   293.36   313.60
                              318.62   358.97   382.48   417.29   462.34
                              478.36   497.03   563.81   583.57   642.70
                              670.83   682.15   701.95   785.85   808.17
                              816.21   850.77  1051.72  1063.30  1190.59
                             1203.65  1293.10  1331.22  1410.76  1438.46
                             1450.93  1452.25  1475.57  1549.00  1551.22
                             1572.45  1594.39  1607.10  1641.21  1696.39
                             1779.19  1819.07  1847.38  1856.75  1937.52
                             1948.39  2067.69  2076.08  2324.90  2333.85
                             3510.85  4404.10  4406.14  4491.83  4499.01
                             4965.83  4967.29  5089.55  5097.15  5542.42
                             5559.70

 Zero-point correction=                           0.174299 (Hartree/Particle)
 Thermal correction to Energy=                    0.190123
 Thermal correction to Enthalpy=                  0.191067
 Thermal correction to Gibbs Free Energy=         0.130000
 Sum of electronic and zero-point Energies=          -2477.272317
 Sum of electronic and thermal Energies=             -2477.256493
 Sum of electronic and thermal Enthalpies=           -2477.255549
 Sum of electronic and thermal Free Energies=        -2477.316616

                     E (Thermal)             CV                S
                      KCal/Mol        Cal/Mol-Kelvin    Cal/Mol-Kelvin
 Total                  119.304             58.144            128.525
 Electronic               0.000              0.000              3.561
 Translational            0.889              2.981             42.744
 Rotational               0.889              2.981             32.145
 Vibrational            117.526             52.183             50.076
 Vibration     1          0.596              1.975              4.575
 Vibration     2          0.599              1.965              3.993
 Vibration     3          0.600              1.963              3.894
 Vibration     4          0.608              1.935              3.148
 Vibration     5          0.610              1.928              3.021
 Vibration     6          0.613              1.919              2.879
 Vibration     7          0.622              1.890              2.533
 Vibration     8          0.633              1.855              2.235
 Vibration     9          0.640              1.834              2.098
 Vibration    10          0.646              1.814              1.976
 Vibration    11          0.648              1.808              1.947
 Vibration    12          0.662              1.764              1.734
 Vibration    13          0.672              1.736              1.623
 Vibration    14          0.686              1.692              1.474
 Vibration    15          0.707              1.633              1.303
 Vibration    16          0.714              1.611              1.248
 Vibration    17          0.724              1.585              1.187
 Vibration    18          0.759              1.488              0.993
 Vibration    19          0.771              1.458              0.942
 Vibration    20          0.806              1.368              0.806
 Vibration    21          0.824              1.325              0.748
 Vibration    22          0.831              1.307              0.726
 Vibration    23          0.844              1.277              0.689
 Vibration    24          0.901              1.148              0.552
 Vibration    25          0.917              1.114              0.520
 Vibration    26          0.923              1.102              0.509
 Vibration    27          0.949              1.050              0.465

 Optimization completed.
    -- Stationary point found.
 Normal termination of Gaussian 16 at Thu Sep  5 03:08:42 2024.
