 Gaussian 16, Revision C.01,
 Gaussian 16:  ES64L-G16RevC.01  3-Jul-2019

 ----------------------------------------------------------------------
 #UM06/Def2TZVP Opt Freq(noraman) INT(grid=ultrafine) EmpiricalDispersi
 on=GD3 SCF=XQC Pop=NPA
 ----------------------------------------------------------------------

 99/9=1/99;

 Symbolic Z-matrix:
 Charge =  1 Multiplicity = 1

 SCF Done:  E(UM06) =  -1357.22553177     A.U. after   12 cycles
 SCF Done:  E(UM06) =  -1357.22627355     A.U. after   10 cycles
 SCF Done:  E(UM06) =  -1357.22638177     A.U. after    9 cycles
 SCF Done:  E(UM06) =  -1357.22647431     A.U. after    8 cycles
 SCF Done:  E(UM06) =  -1357.22649672     A.U. after    8 cycles
 SCF Done:  E(UM06) =  -1357.22651100     A.U. after    8 cycles
 SCF Done:  E(UM06) =  -1357.22651758     A.U. after    7 cycles
 SCF Done:  E(UM06) =  -1357.22652902     A.U. after    8 cycles
 SCF Done:  E(UM06) =  -1357.22653616     A.U. after    7 cycles
 SCF Done:  E(UM06) =  -1357.22654173     A.U. after    7 cycles
 SCF Done:  E(UM06) =  -1357.22654982     A.U. after    7 cycles
 SCF Done:  E(UM06) =  -1357.22655164     A.U. after    7 cycles
 SCF Done:  E(UM06) =  -1357.22655338     A.U. after    7 cycles
 SCF Done:  E(UM06) =  -1357.22655524     A.U. after    7 cycles
 SCF Done:  E(UM06) =  -1357.22655794     A.U. after    7 cycles
 SCF Done:  E(UM06) =  -1357.22655981     A.U. after    7 cycles
 SCF Done:  E(UM06) =  -1357.22656123     A.U. after    6 cycles
 SCF Done:  E(UM06) =  -1357.22656267     A.U. after    6 cycles
 SCF Done:  E(UM06) =  -1357.22656250     A.U. after    6 cycles
 Optimization completed.
    -- Stationary point found.
 Normal termination of Gaussian 16 at Thu Sep  5 12:53:39 2024.

 ------------------------------------------------------------------
 #N Geom=AllCheck Guess=TCheck SCRF=Check GenChk UM06/def2TZVP Freq
 ------------------------------------------------------------------

 Structure from the checkpoint file:  "AMPA.a.Sr.CONF1.B3LYP.chk"

 Charge =  1 Multiplicity = 1

                         Standard orientation:
 ---------------------------------------------------------------------
 Center     Atomic      Atomic             Coordinates (Angstroms)
 Number     Number       Type             X           Y           Z
 ---------------------------------------------------------------------
      1          7           0        1.678086    0.090534    2.049475
      2          6           0        2.653760   -0.770601    1.338713
      3         15           0        2.141559   -0.704671   -0.393873
      4          8           0        2.352823    0.708403   -0.868596
      5          8           0        0.665482   -1.038772   -0.391200
      6          8           0        2.995906   -1.766883   -1.177239
      7         38           0        0.296335    1.526133    0.123648
      8          1           0        3.563140   -1.398486   -1.862096
      9          1           0        2.102308    0.477584    2.884616
     10          1           0        3.652601   -0.340740    1.425356
     11          1           0        2.691127   -1.791504    1.726900
     12          1           0        0.903260   -0.483333    2.369831
     13          7           0       -1.340221    0.644230   -1.894656
     14          6           0       -2.616955    0.103488   -1.401687
     15         15           0       -2.395341   -0.531082    0.273135
     16          8           0       -3.858254   -0.826492    0.731634
     17          8           0       -1.655314    0.485571    1.070325
     18          8           0       -1.703772   -1.925067    0.225911
     19          1           0       -0.726379   -1.846451    0.052206
     20          1           0       -1.501305    1.147982   -2.759880
     21          1           0       -3.352080    0.909356   -1.331654
     22          1           0       -3.045457   -0.676106   -2.039251
     23          1           0       -0.714912   -0.127150   -2.125416
     24          1           0       -3.987148   -1.562671    1.339292
 ---------------------------------------------------------------------

 SCF Done:  E(UM06) =  -1357.22656250     A.U. after    1 cycles

 The electronic state is 1-A.
 Alpha  occ. eigenvalues --  -77.47026 -77.43337 -19.37674 -19.35761 -19.35497
 Alpha  occ. eigenvalues --  -19.31798 -19.29839 -19.29050 -14.54367 -14.53353
 Alpha  occ. eigenvalues --  -10.41239 -10.39116  -6.87740  -6.84111  -4.99834
 Alpha  occ. eigenvalues --   -4.99641  -4.99508  -4.96186  -4.95983  -4.95919
 Alpha  occ. eigenvalues --   -1.69761  -1.24732  -1.21401  -1.19203  -1.14838
 Alpha  occ. eigenvalues --   -1.14461  -1.09741  -1.06514  -1.05018  -1.00091
 Alpha  occ. eigenvalues --   -0.99760  -0.99063  -0.85788  -0.83129  -0.76666
 Alpha  occ. eigenvalues --   -0.73384  -0.71032  -0.67947  -0.66070  -0.63783
 Alpha  occ. eigenvalues --   -0.63276  -0.61218  -0.60091  -0.59946  -0.58705
 Alpha  occ. eigenvalues --   -0.57435  -0.56962  -0.55403  -0.53970  -0.53394
 Alpha  occ. eigenvalues --   -0.52228  -0.52115  -0.49710  -0.48722  -0.47783
 Alpha  occ. eigenvalues --   -0.47225  -0.46697  -0.45450  -0.44666  -0.44240
 Alpha  occ. eigenvalues --   -0.42705  -0.42049
 Alpha virt. eigenvalues --   -0.18632  -0.14792  -0.13137  -0.13000  -0.11452
 Alpha virt. eigenvalues --   -0.10878  -0.10167  -0.10043  -0.08280  -0.06898
 Alpha virt. eigenvalues --   -0.05946  -0.05256  -0.05103  -0.04670  -0.04110

  Beta  occ. eigenvalues --  -77.47026 -77.43337 -19.37674 -19.35761 -19.35497
  Beta  occ. eigenvalues --  -19.31798 -19.29839 -19.29050 -14.54367 -14.53353
  Beta  occ. eigenvalues --  -10.41239 -10.39116  -6.87740  -6.84111  -4.99834
  Beta  occ. eigenvalues --   -4.99641  -4.99508  -4.96186  -4.95983  -4.95919
  Beta  occ. eigenvalues --   -1.69761  -1.24732  -1.21401  -1.19203  -1.14838
  Beta  occ. eigenvalues --   -1.14461  -1.09741  -1.06514  -1.05018  -1.00091
  Beta  occ. eigenvalues --   -0.99760  -0.99063  -0.85788  -0.83129  -0.76666
  Beta  occ. eigenvalues --   -0.73384  -0.71032  -0.67947  -0.66070  -0.63783
  Beta  occ. eigenvalues --   -0.63276  -0.61218  -0.60091  -0.59946  -0.58705
  Beta  occ. eigenvalues --   -0.57435  -0.56962  -0.55403  -0.53970  -0.53394
  Beta  occ. eigenvalues --   -0.52228  -0.52115  -0.49710  -0.48722  -0.47783
  Beta  occ. eigenvalues --   -0.47225  -0.46697  -0.45450  -0.44666  -0.44240
  Beta  occ. eigenvalues --   -0.42705  -0.42049
  Beta virt. eigenvalues --   -0.18632  -0.14792  -0.13137  -0.13000  -0.11452
  Beta virt. eigenvalues --   -0.10878  -0.10167  -0.10043  -0.08280  -0.06898
  Beta virt. eigenvalues --   -0.05946  -0.05256  -0.05103  -0.04670  -0.04110

 Mulliken charges and spin densities:
               1          2
     1  N   -0.597055   0.000000
     2  C   -0.131412   0.000000
     3  P    0.800199   0.000000
     4  O   -0.638231   0.000000
     5  O   -0.695172   0.000000
     6  O   -0.493943   0.000000
     7  Sr   1.378868   0.000000
     8  H    0.373063   0.000000
     9  H    0.260597   0.000000
    10  H    0.146455   0.000000
    11  H    0.152380   0.000000
    12  H    0.267264   0.000000
    13  N   -0.619932   0.000000
    14  C   -0.151185   0.000000
    15  P    0.860630   0.000000
    16  O   -0.479535   0.000000
    17  O   -0.630934   0.000000
    18  O   -0.466056   0.000000
    19  H    0.410765   0.000000
    20  H    0.264436   0.000000
    21  H    0.165171   0.000000
    22  H    0.163816   0.000000
    23  H    0.278967   0.000000
    24  H    0.380845   0.000000
 Sum of Mulliken charges =   1.00000   0.00000

 Dipole moment (field-independent basis, Debye):
    X=             -0.6286    Y=              4.3375    Z=              0.5873  Tot=              4.4220
 Quadrupole moment (field-independent basis, Debye-Ang):
   XX=            -71.9694   YY=            -81.2924   ZZ=            -76.8895
   XY=              1.8233   XZ=              7.7564   YZ=             -3.2547

  Exact polarizability:     128.583      -1.421     102.740       0.707      -1.980     107.366
 Approx polarizability:     158.178       0.537     152.604      -2.651      -0.243     143.409

 Summary of Natural Population Analysis:

                                       Natural Population
                Natural  -----------------------------------------------
    Atom  No    Charge         Core      Valence    Rydberg      Total
 -----------------------------------------------------------------------
      N    1   -0.45388      0.99981     2.94490    0.00917     3.95388
      C    2   -0.31719      0.99967     2.30379    0.01373     3.31719
      P    3    1.19523      4.99931     1.22966    0.07581     6.30477
      O    4   -0.61435      0.99990     3.59870    0.01574     4.61435
      O    5   -0.63061      0.99986     3.61986    0.01089     4.63061
      O    6   -0.49161      0.99988     3.47802    0.01371     4.49161
     Sr    7    0.92880     17.99497     0.03487    0.04135    18.07120
      H    8    0.26472      0.00000     0.23429    0.00099     0.23528
      H    9    0.19347      0.00000     0.30563    0.00090     0.30653
      H   10    0.11582      0.00000     0.38370    0.00048     0.38418
      H   11    0.11067      0.00000     0.38876    0.00057     0.38933
      H   12    0.19236      0.00000     0.30673    0.00091     0.30764
      N   13   -0.45383      0.99981     2.94503    0.00900     3.95383
      C   14   -0.31698      0.99966     2.30306    0.01426     3.31698
      P   15    1.20579      4.99935     1.22701    0.06785     6.29421
      O   16   -0.48890      0.99988     3.47512    0.01391     4.48890
      O   17   -0.60837      0.99988     3.59431    0.01418     4.60837
      O   18   -0.50387      0.99988     3.48898    0.01501     4.50387
      H   19    0.27786      0.00000     0.22039    0.00175     0.22214
      H   20    0.19471      0.00000     0.30436    0.00093     0.30529
      H   21    0.11930      0.00000     0.38021    0.00049     0.38070
      H   22    0.11416      0.00000     0.38525    0.00059     0.38584
      H   23    0.19851      0.00000     0.30052    0.00097     0.30149
      H   24    0.26819      0.00000     0.23080    0.00101     0.23181
 =======================================================================
   * Total *    0.50000     37.99184    37.68396    0.32420    76.00000

                      1                      2                      3
                      A                      A                      A
 Frequencies --     29.4973                55.0062                88.8734
 Red. masses --      5.5261                 5.6881                 7.7570
 Frc consts  --      0.0028                 0.0101                 0.0361
 IR Inten    --      3.0632                 3.3290                 4.8671

                      4                      5                      6
                      A                      A                      A
 Frequencies --    105.8075               125.6122               140.9860
 Red. masses --      4.8397                 2.9692                 2.0543
 Frc consts  --      0.0319                 0.0276                 0.0241
 IR Inten    --     12.0311                28.9195                35.9577

                      7                      8                      9
                      A                      A                      A
 Frequencies --    149.6622               158.2253               166.6083
 Red. masses --      2.2434                 2.5289                 5.5906
 Frc consts  --      0.0296                 0.0373                 0.0914
 IR Inten    --      6.4408                12.0678                28.0436

                     10                     11                     12
                      A                      A                      A
 Frequencies --    168.1732               186.1058               201.5025
 Red. masses --      3.6975                 3.1901                10.8786
 Frc consts  --      0.0616                 0.0651                 0.2602
 IR Inten    --     39.5878                74.0027                 8.7906

                     13                     14                     15
                      A                      A                      A
 Frequencies --    233.8343               265.8522               272.4315
 Red. masses --      4.6427                 2.8788                 4.0979
 Frc consts  --      0.1496                 0.1199                 0.1792
 IR Inten    --     10.6454                 4.4647                34.3863

                     16                     17                     18
                      A                      A                      A
 Frequencies --    298.1355               306.2986               367.5138
 Red. masses --      2.8640                 3.5137                 3.4597
 Frc consts  --      0.1500                 0.1942                 0.2753
 IR Inten    --      2.5130                12.7773                 8.4905

                     19                     20                     21
                      A                      A                      A
 Frequencies --    378.9784               410.5693               414.8524
 Red. masses --      4.3378                 3.8054                 4.3086
 Frc consts  --      0.3671                 0.3779                 0.4369
 IR Inten    --     27.8037                14.8982                 3.4634

                     22                     23                     24
                      A                      A                      A
 Frequencies --    442.2071               452.1668               479.2610
 Red. masses --      2.4948                 2.0169                 1.6678
 Frc consts  --      0.2874                 0.2430                 0.2257
 IR Inten    --     31.4954                25.6320               120.0198

                     25                     26                     27
                      A                      A                      A
 Frequencies --    524.6248               531.4941               535.9857
 Red. masses --      7.4153                 4.2548                 8.2166
 Frc consts  --      1.2025                 0.7081                 1.3907
 IR Inten    --     63.9859                92.8345                96.0530

                     28                     29                     30
                      A                      A                      A
 Frequencies --    730.7000               763.3374               800.9797
 Red. masses --      3.0573                 3.8032                 1.0956
 Frc consts  --      0.9617                 1.3057                 0.4141
 IR Inten    --     17.6188                21.5284                78.0321

                     31                     32                     33
                      A                      A                      A
 Frequencies --    821.5359               848.0111               894.0848
 Red. masses --      1.4331                 1.5309                 2.0776
 Frc consts  --      0.5699                 0.6486                 0.9785
 IR Inten    --      6.8980                43.3369               246.5602

                     34                     35                     36
                      A                      A                      A
 Frequencies --    907.5102               984.0193               991.6701
 Red. masses --      2.0736                 2.5127                 2.6255
 Frc consts  --      1.0062                 1.4335                 1.5212
 IR Inten    --    227.9552                21.8598               114.1879

                     37                     38                     39
                      A                      A                      A
 Frequencies --    999.7542              1019.2368              1044.1823
 Red. masses --      2.3663                 2.2979                 3.6686
 Frc consts  --      1.3935                 1.4065                 2.3567
 IR Inten    --     38.4091                94.2647               345.3995

                     40                     41                     42
                      A                      A                      A
 Frequencies --   1047.2849              1067.3996              1101.5939
 Red. masses --      1.5342                 1.9801                 1.1242
 Frc consts  --      0.9915                 1.3292                 0.8038
 IR Inten    --     32.5579                29.8159                 8.0987

                     43                     44                     45
                      A                      A                      A
 Frequencies --   1125.6768              1142.7998              1178.5552
 Red. masses --      1.1311                 5.7573                 2.0681
 Frc consts  --      0.8444                 4.4301                 1.6924
 IR Inten    --     57.0717               269.9322               193.8489

                     46                     47                     48
                      A                      A                      A
 Frequencies --   1210.0477              1253.2491              1275.3968
 Red. masses --      3.3279                 3.7021                 1.3409
 Frc consts  --      2.8709                 3.4258                 1.2851
 IR Inten    --    125.8433               373.7347                24.9786

                     49                     50                     51
                      A                      A                      A
 Frequencies --   1286.8309              1342.1656              1370.1525
 Red. masses --      1.3724                 1.3392                 1.4039
 Frc consts  --      1.3390                 1.4214                 1.5529
 IR Inten    --    100.4574                 6.6340                10.2039

                     52                     53                     54
                      A                      A                      A
 Frequencies --   1442.8500              1448.3688              1620.5923
 Red. masses --      1.0780                 1.0778                 1.0831
 Frc consts  --      1.3223                 1.3321                 1.6760
 IR Inten    --      8.3556                 8.0474                41.7571

                     55                     56                     57
                      A                      A                      A
 Frequencies --   1630.4352              3039.9705              3055.1066
 Red. masses --      1.0789                 1.0612                 1.0614
 Frc consts  --      1.6898                 5.7779                 5.8371
 IR Inten    --     31.6797                 5.5666                 6.9667

                     58                     59                     60
                      A                      A                      A
 Frequencies --   3101.6465              3123.0636              3278.5017
 Red. masses --      1.1035                 1.1048                 1.0690
 Frc consts  --      6.2550                 6.3491                 6.7696
 IR Inten    --      0.8557                 1.6293              1230.9536

                     61                     62                     63
                      A                      A                      A
 Frequencies --   3441.0368              3475.4877              3543.6505
 Red. masses --      1.0563                 1.0523                 1.0872
 Frc consts  --      7.3693                 7.4893                 8.0436
 IR Inten    --     31.5181                12.3246                40.7361

                     64                     65                     66
                      A                      A                      A
 Frequencies --   3557.3069              3859.9046              3870.2928
 Red. masses --      1.0912                 1.0664                 1.0663
 Frc consts  --      8.1357                 9.3607                 9.4103
 IR Inten    --     28.6222               244.4908               207.9696

 - Thermochemistry -
 -------------------
 Temperature   298.150 Kelvin.  Pressure   1.00000 Atm.
 Atom     1 has atomic number  7 and mass  14.00307

 Molecular mass:   308.91484 amu.
 Principal axes and moments of inertia in atomic units:
                           1         2         3
     Eigenvalues --  2402.633525265.019765749.60866
           X            0.99962  -0.01117   0.02536
           Y            0.01267   0.99812  -0.05990
           Z           -0.02464   0.06020   0.99788
 This molecule is an asymmetric top.
 Rotational symmetry number  1.
 Warning -- assumption of classical behavior for rotation
           may cause significant error
 Rotational temperatures (Kelvin)      0.03605     0.01645     0.01506
 Rotational constants (GHZ):           0.75115     0.34278     0.31389
 Zero-point vibrational energy     455685.4 (Joules/Mol)
                                  108.91143 (Kcal/Mol)
 Warning -- explicit consideration of  27 degrees of freedom as
           vibrations may cause significant error
 Vibrational temperatures:     42.44    79.14   127.87   152.23   180.73
          (Kelvin)            202.85   215.33   227.65   239.71   241.96
                              267.76   289.92   336.44   382.50   391.97
                              428.95   440.70   528.77   545.27   590.72
                              596.88   636.24   650.57   689.55   754.82
                              764.70   771.16  1051.31  1098.27  1152.43
                             1182.01  1220.10  1286.39  1305.70  1415.78
                             1426.79  1438.42  1466.45  1502.35  1506.81
                             1535.75  1584.95  1619.60  1644.23  1695.68
                             1740.99  1803.15  1835.01  1851.46  1931.08
                             1971.34  2075.94  2083.88  2331.67  2345.83
                             4373.84  4395.62  4462.58  4493.39  4717.03
                             4950.88  5000.45  5098.52  5118.17  5553.54
                             5568.49

 Zero-point correction=                           0.173561 (Hartree/Particle)
 Thermal correction to Energy=                    0.190405
 Thermal correction to Enthalpy=                  0.191349
 Thermal correction to Gibbs Free Energy=         0.128668
 Sum of electronic and zero-point Energies=          -1357.053001
 Sum of electronic and thermal Energies=             -1357.036158
 Sum of electronic and thermal Enthalpies=           -1357.035214
 Sum of electronic and thermal Free Energies=        -1357.097894

                     E (Thermal)             CV                S
                      KCal/Mol        Cal/Mol-Kelvin    Cal/Mol-Kelvin
 Total                  119.481             60.043            131.923
 Electronic               0.000              0.000              0.000
 Translational            0.889              2.981             43.080
 Rotational               0.889              2.981             32.653
 Vibrational            117.703             54.081             56.190
 Vibration     1          0.593              1.984              5.863
 Vibration     2          0.596              1.976              4.629
 Vibration     3          0.602              1.957              3.685
 Vibration     4          0.605              1.945              3.344
 Vibration     5          0.611              1.927              3.012
 Vibration     6          0.615              1.912              2.790
 Vibration     7          0.618              1.903              2.677
 Vibration     8          0.621              1.893              2.571
 Vibration     9          0.624              1.884              2.473
 Vibration    10          0.625              1.882              2.456
 Vibration    11          0.632              1.859              2.266
 Vibration    12          0.638              1.838              2.119
 Vibration    13          0.654              1.789              1.849
 Vibration    14          0.672              1.736              1.623
 Vibration    15          0.675              1.724              1.581
 Vibration    16          0.691              1.677              1.427
 Vibration    17          0.697              1.662              1.382
 Vibration    18          0.740              1.539              1.090
 Vibration    19          0.749              1.515              1.043
 Vibration    20          0.775              1.447              0.925
 Vibration    21          0.778              1.438              0.910
 Vibration    22          0.802              1.378              0.820
 Vibration    23          0.811              1.356              0.789
 Vibration    24          0.836              1.296              0.712
 Vibration    25          0.880              1.195              0.599
 Vibration    26          0.886              1.180              0.584
 Vibration    27          0.891              1.170              0.574

                           ! Non-Optimized Parameters !
 Normal termination of Gaussian 16 at Thu Sep  5 13:09:12 2024.
