 Gaussian 16, Revision C.01,
 Gaussian 16:  ES64L-G16RevC.01  3-Jul-2019

 ----------------------------------------------------------------------
 #UM06/Def2TZVP OPT Freq=Noraman INT(grid=ultrafine) EmpiricalDispersio
 n=GD3 SCF=XQC Pop=NPA
 ----------------------------------------------------------------------

 -----------------------------
 AMPA.a.Zn.CONF1.B3LYP.optfreq
 -----------------------------
 Symbolic Z-matrix:
 Charge =  1 Multiplicity = 1

 SCF Done:  E(UM06) =  -3105.78583469     A.U. after   13 cycles
 SCF Done:  E(UM06) =  -3105.78825792     A.U. after   11 cycles
 SCF Done:  E(UM06) =  -3105.77782048     A.U. after   11 cycles
 SCF Done:  E(UM06) =  -3105.79039550     A.U. after   10 cycles
 SCF Done:  E(UM06) =  -3105.79122229     A.U. after   10 cycles
 SCF Done:  E(UM06) =  -3105.79192022     A.U. after    9 cycles
 SCF Done:  E(UM06) =  -3105.79207522     A.U. after    9 cycles
 SCF Done:  E(UM06) =  -3105.79212162     A.U. after    8 cycles
 SCF Done:  E(UM06) =  -3105.79214660     A.U. after    8 cycles
 SCF Done:  E(UM06) =  -3105.79215962     A.U. after    7 cycles
 SCF Done:  E(UM06) =  -3105.79217087     A.U. after    8 cycles
 SCF Done:  E(UM06) =  -3105.79217656     A.U. after    7 cycles
 SCF Done:  E(UM06) =  -3105.79218371     A.U. after    8 cycles
 SCF Done:  E(UM06) =  -3105.79218940     A.U. after    7 cycles
 SCF Done:  E(UM06) =  -3105.79219505     A.U. after    7 cycles
 SCF Done:  E(UM06) =  -3105.79219768     A.U. after    7 cycles
 SCF Done:  E(UM06) =  -3105.79219815     A.U. after    7 cycles
 Optimization completed.
    -- Stationary point found.
 Normal termination of Gaussian 16 at Thu Sep  5 01:56:10 2024.

 ------------------------------------------------------------------
 #N Geom=AllCheck Guess=TCheck SCRF=Check GenChk UM06/def2TZVP Freq
 ------------------------------------------------------------------

 Structure from the checkpoint file:  "AMPA.a.Zn.CONF1.B3LYP.chk"
 -----------------------------
 AMPA.a.Zn.CONF1.B3LYP.optfreq
 -----------------------------
 Charge =  1 Multiplicity = 1

                         Standard orientation:
 ---------------------------------------------------------------------
 Center     Atomic      Atomic             Coordinates (Angstroms)
 Number     Number       Type             X           Y           Z
 ---------------------------------------------------------------------
      1          7           0       -1.719628   -1.609637   -1.125890
      2          6           0       -2.235450   -0.209826   -1.250995
      3         15           0       -1.865183    0.798325    0.256566
      4          8           0       -1.192868    2.069772   -0.116894
      5          8           0       -1.069538   -0.153205    1.139225
      6          8           0       -3.282859    1.047775    0.894253
      7         30           0       -0.049777   -1.355833   -0.010438
      8          1           0       -3.456226    1.969968    1.112436
      9          1           0       -1.610968   -2.025507   -2.045739
     10          1           0       -1.714865    0.264130   -2.083700
     11          1           0       -3.304192   -0.207564   -1.468346
     12          1           0       -2.394944   -2.179223   -0.623744
     13          7           0        1.610503   -1.630390    1.148957
     14          6           0        2.146878   -0.246691    1.290283
     15         15           0        1.921328    0.695636   -0.266616
     16          8           0        1.328360    2.077168    0.014595
     17          8           0        1.094010   -0.181560   -1.161313
     18          8           0        3.385610    0.921452   -0.757717
     19          1           0        3.543342    1.692775   -1.314662
     20          1           0        1.424176   -2.019627    2.068463
     21          1           0        1.567998    0.262898    2.061951
     22          1           0        3.195735   -0.248418    1.590364
     23          1           0        2.300939   -2.230844    0.707489
     24          1           0        0.293725    2.155067   -0.035020
 ---------------------------------------------------------------------

 SCF Done:  E(UM06) =  -3105.79219815     A.U. after    1 cycles

 The electronic state is 1-A.
 Alpha  occ. eigenvalues -- -347.70936 -77.48789 -77.44724 -42.61885 -37.50655
 Alpha  occ. eigenvalues --  -37.50452 -37.50354 -19.38985 -19.35901 -19.35735
 Alpha  occ. eigenvalues --  -19.34513 -19.32262 -19.29411 -14.60747 -14.59881
 Alpha  occ. eigenvalues --  -10.43947 -10.41893  -6.89473  -6.85421  -5.09830
 Alpha  occ. eigenvalues --   -5.01519  -5.01353  -5.01322  -4.97465  -4.97345
 Alpha  occ. eigenvalues --   -4.97228  -3.45190  -3.44758  -3.44635  -1.25904
 Alpha  occ. eigenvalues --   -1.22018  -1.19872  -1.16559  -1.15325  -1.11320
 Alpha  occ. eigenvalues --   -1.11069  -1.09939  -0.88421  -0.85942  -0.78690
 Alpha  occ. eigenvalues --   -0.74863  -0.72688  -0.71723  -0.71255  -0.70849
 Alpha  occ. eigenvalues --   -0.69674  -0.69229  -0.69133  -0.67062  -0.66391
 Alpha  occ. eigenvalues --   -0.65529  -0.64205  -0.63404  -0.62488  -0.60976
 Alpha  occ. eigenvalues --   -0.58520  -0.58353  -0.57097  -0.56272  -0.55771
 Alpha  occ. eigenvalues --   -0.53569  -0.53374  -0.52545  -0.51150  -0.49789
 Alpha  occ. eigenvalues --   -0.48944  -0.48887  -0.47949  -0.47262  -0.46209
 Alpha  occ. eigenvalues --   -0.43866  -0.43487
 Alpha virt. eigenvalues --   -0.18841  -0.13009  -0.11494  -0.11138  -0.09774
 Alpha virt. eigenvalues --   -0.08722  -0.08103  -0.07024  -0.06615  -0.05924
 Alpha virt. eigenvalues --   -0.05064  -0.04859  -0.03772  -0.03455  -0.02719

  Beta  occ. eigenvalues -- -347.70936 -77.48789 -77.44724 -42.61885 -37.50655
  Beta  occ. eigenvalues --  -37.50452 -37.50354 -19.38985 -19.35901 -19.35735
  Beta  occ. eigenvalues --  -19.34513 -19.32262 -19.29411 -14.60747 -14.59881
  Beta  occ. eigenvalues --  -10.43947 -10.41893  -6.89473  -6.85421  -5.09830
  Beta  occ. eigenvalues --   -5.01519  -5.01353  -5.01322  -4.97465  -4.97345
  Beta  occ. eigenvalues --   -4.97228  -3.45190  -3.44758  -3.44635  -1.25904
  Beta  occ. eigenvalues --   -1.22018  -1.19872  -1.16559  -1.15325  -1.11320
  Beta  occ. eigenvalues --   -1.11069  -1.09939  -0.88421  -0.85942  -0.78690
  Beta  occ. eigenvalues --   -0.74863  -0.72688  -0.71723  -0.71255  -0.70849
  Beta  occ. eigenvalues --   -0.69674  -0.69229  -0.69133  -0.67062  -0.66391
  Beta  occ. eigenvalues --   -0.65529  -0.64205  -0.63404  -0.62488  -0.60976
  Beta  occ. eigenvalues --   -0.58520  -0.58353  -0.57097  -0.56272  -0.55771
  Beta  occ. eigenvalues --   -0.53569  -0.53374  -0.52545  -0.51150  -0.49789
  Beta  occ. eigenvalues --   -0.48944  -0.48887  -0.47949  -0.47262  -0.46209
  Beta  occ. eigenvalues --   -0.43866  -0.43487
  Beta virt. eigenvalues --   -0.18841  -0.13009  -0.11494  -0.11138  -0.09774
  Beta virt. eigenvalues --   -0.08722  -0.08103  -0.07024  -0.06615  -0.05924
  Beta virt. eigenvalues --   -0.05064  -0.04859  -0.03772  -0.03455  -0.02719

 Mulliken charges and spin densities:
               1          2
     1  N   -0.352094   0.000000
     2  C   -0.237714   0.000000
     3  P    0.790585   0.000000
     4  O   -0.569485   0.000000
     5  O   -0.473164   0.000000
     6  O   -0.493660   0.000000
     7  Zn   0.398119   0.000000
     8  H    0.377681   0.000000
     9  H    0.291928   0.000000
    10  H    0.187559   0.000000
    11  H    0.167428   0.000000
    12  H    0.289228   0.000000
    13  N   -0.364328   0.000000
    14  C   -0.233762   0.000000
    15  P    0.815117   0.000000
    16  O   -0.450851   0.000000
    17  O   -0.437695   0.000000
    18  O   -0.478384   0.000000
    19  H    0.386993   0.000000
    20  H    0.298516   0.000000
    21  H    0.206457   0.000000
    22  H    0.178435   0.000000
    23  H    0.291373   0.000000
    24  H    0.411717   0.000000
 Sum of Mulliken charges =   1.00000   0.00000

 Dipole moment (field-independent basis, Debye):
    X=              1.5350    Y=             -6.0880    Z=             -0.4152  Tot=              6.2923
 Quadrupole moment (field-independent basis, Debye-Ang):
   XX=            -59.7462   YY=            -72.2020   ZZ=            -81.9461
   XY=              1.4449   XZ=              9.0784   YZ=             -0.7891

  Exact polarizability:     122.163       0.226     105.401       4.314      -0.385      93.931
 Approx polarizability:     150.787       1.024     146.809       2.479      -0.781     135.378

 Summary of Natural Population Analysis:

                                       Natural Population
                Natural  -----------------------------------------------
    Atom  No    Charge         Core      Valence    Rydberg      Total
 -----------------------------------------------------------------------
      N    1   -0.42946      0.99980     2.92281    0.00684     3.92946
      C    2   -0.31714      0.99965     2.30540    0.01209     3.31714
      P    3    1.20022      4.99923     1.22710    0.07345     6.29978
      O    4   -0.56245      0.99985     3.54812    0.01448     4.56245
      O    5   -0.58188      0.99989     3.56800    0.01400     4.58188
      O    6   -0.49350      0.99988     3.48001    0.01360     4.49350
     Zn    7    0.63549      8.99934     5.35737    0.00781    14.36451
      H    8    0.26583      0.00000     0.23318    0.00099     0.23417
      H    9    0.20767      0.00000     0.29147    0.00086     0.29233
      H   10    0.12446      0.00000     0.37503    0.00051     0.37554
      H   11    0.12122      0.00000     0.37823    0.00055     0.37878
      H   12    0.20618      0.00000     0.29307    0.00075     0.29382
      N   13   -0.42616      0.99980     2.91939    0.00697     3.92616
      C   14   -0.31725      0.99965     2.30570    0.01190     3.31725
      P   15    1.20569      4.99920     1.22710    0.06802     6.29431
      O   16   -0.50654      0.99986     3.49169    0.01499     4.50654
      O   17   -0.56421      0.99988     3.54925    0.01508     4.56421
      O   18   -0.48832      0.99988     3.47474    0.01370     4.48832
      H   19    0.26992      0.00000     0.22908    0.00100     0.23008
      H   20    0.20970      0.00000     0.28950    0.00080     0.29030
      H   21    0.13163      0.00000     0.36786    0.00051     0.36837
      H   22    0.12520      0.00000     0.37425    0.00055     0.37480
      H   23    0.20614      0.00000     0.29309    0.00077     0.29386
      H   24    0.27757      0.00000     0.22043    0.00200     0.22243
 =======================================================================
   * Total *    0.50000     28.99591    42.72188    0.28221    72.00000

                      1                      2                      3
                      A                      A                      A
 Frequencies --     69.2226                74.0036                96.1415
 Red. masses --      6.1076                 5.1084                 5.1755
 Frc consts  --      0.0172                 0.0165                 0.0282
 IR Inten    --      4.6512                 2.0030                 5.7293

                      4                      5                      6
                      A                      A                      A
 Frequencies --    113.7682               131.1339               140.1820
 Red. masses --      4.6176                 3.6728                 3.3648
 Frc consts  --      0.0352                 0.0372                 0.0390
 IR Inten    --      6.2084                 4.0036                 8.1072

                      7                      8                      9
                      A                      A                      A
 Frequencies --    164.2843               174.1968               206.9635
 Red. masses --      3.3171                 1.8871                 2.5007
 Frc consts  --      0.0527                 0.0337                 0.0631
 IR Inten    --     29.0207                54.9783                39.0898

                     10                     11                     12
                      A                      A                      A
 Frequencies --    212.0174               236.2038               259.6659
 Red. masses --      4.4642                 4.1050                 4.3710
 Frc consts  --      0.1182                 0.1349                 0.1736
 IR Inten    --     12.5890                40.8418                27.6091

                     13                     14                     15
                      A                      A                      A
 Frequencies --    283.5165               296.2102               327.7293
 Red. masses --      3.2596                 3.9470                 2.8473
 Frc consts  --      0.1544                 0.2040                 0.1802
 IR Inten    --     41.7409                 9.5865                43.6726

                     16                     17                     18
                      A                      A                      A
 Frequencies --    353.3015               356.1659               400.6026
 Red. masses --      3.8200                 3.1974                 4.5051
 Frc consts  --      0.2809                 0.2390                 0.4260
 IR Inten    --      6.4357                 5.9761                13.8905

                     19                     20                     21
                      A                      A                      A
 Frequencies --    428.1445               440.8947               478.8566
 Red. masses --      5.6102                 5.8670                 7.4700
 Frc consts  --      0.6059                 0.6720                 1.0092
 IR Inten    --      1.1509                 8.7797                82.3622

                     22                     23                     24
                      A                      A                      A
 Frequencies --    498.3471               512.1538               545.6304
 Red. masses --      4.7078                 4.5691                 5.1515
 Frc consts  --      0.6889                 0.7061                 0.9036
 IR Inten    --     82.7316                11.2842                66.1737

                     25                     26                     27
                      A                      A                      A
 Frequencies --    573.5403               615.6820               635.7085
 Red. masses --      4.6987                 1.6336                 1.7129
 Frc consts  --      0.9107                 0.3648                 0.4079
 IR Inten    --     39.3267                17.0537               155.2526

                     28                     29                     30
                      A                      A                      A
 Frequencies --    727.0813               735.8105               824.8266
 Red. masses --      3.6485                 3.3884                 1.5365
 Frc consts  --      1.1364                 1.0809                 0.6159
 IR Inten    --     20.3397                19.5525                 4.9188

                     31                     32                     33
                      A                      A                      A
 Frequencies --    829.2508               908.7405               931.1961
 Red. masses --      1.5238                 2.0975                 3.5403
 Frc consts  --      0.6174                 1.0206                 1.8087
 IR Inten    --      2.9323               353.4471               145.5353

                     34                     35                     36
                      A                      A                      A
 Frequencies --    974.7159               976.7283               993.0351
 Red. masses --      2.1335                 1.1279                 2.8950
 Frc consts  --      1.1943                 0.6340                 1.6820
 IR Inten    --     31.6040                98.4253                14.1796

                     37                     38                     39
                      A                      A                      A
 Frequencies --   1002.9407              1021.6764              1080.2076
 Red. masses --      3.1307                 3.3490                 1.3943
 Frc consts  --      1.8554                 2.0596                 0.9585
 IR Inten    --     37.1968                46.0600               132.7660

                     40                     41                     42
                      A                      A                      A
 Frequencies --   1085.9410              1104.9859              1111.4697
 Red. masses --      1.2080                 2.6267                 3.0367
 Frc consts  --      0.8393                 1.8896                 2.2103
 IR Inten    --    120.3869               205.1128               212.4622

                     43                     44                     45
                      A                      A                      A
 Frequencies --   1118.8301              1137.0227              1188.7066
 Red. masses --      1.2156                 1.3620                 5.4994
 Frc consts  --      0.8965                 1.0374                 4.5784
 IR Inten    --      5.7935                52.0986                67.2524

                     46                     47                     48
                      A                      A                      A
 Frequencies --   1253.8760              1282.7850              1285.9860
 Red. masses --      6.1613                 1.2831                 1.3278
 Frc consts  --      5.7073                 1.2440                 1.2938
 IR Inten    --    616.6941                12.8702                18.0409

                     49                     50                     51
                      A                      A                      A
 Frequencies --   1294.6673              1342.9020              1353.0815
 Red. masses --      1.2711                 1.3075                 1.3008
 Frc consts  --      1.2553                 1.3893                 1.4032
 IR Inten    --     74.1722                18.6554                 7.9836

                     52                     53                     54
                      A                      A                      A
 Frequencies --   1446.8115              1453.7510              1606.6164
 Red. masses --      1.0727                 1.0715                 1.0792
 Frc consts  --      1.3230                 1.3342                 1.6413
 IR Inten    --     16.1473                10.4317                44.8631

                     55                     56                     57
                      A                      A                      A
 Frequencies --   1612.0098              2471.3621              3072.9300
 Red. masses --      1.0799                 1.0990                 1.0596
 Frc consts  --      1.6533                 3.9546                 5.8951
 IR Inten    --     56.0408              2383.6259                 2.2941

                     58                     59                     60
                      A                      A                      A
 Frequencies --   3074.4723              3137.3874              3140.3737
 Red. masses --      1.0595                 1.1073                 1.1076
 Frc consts  --      5.9006                 6.4220                 6.4355
 IR Inten    --      1.1702                 1.6254                 0.3176

                     61                     62                     63
                      A                      A                      A
 Frequencies --   3472.6593              3473.4228              3547.7594
 Red. masses --      1.0516                 1.0515                 1.0938
 Frc consts  --      7.4720                 7.4743                 8.1114
 IR Inten    --     32.3851                56.7835                30.9747

                     64                     65                     66
                      A                      A                      A
 Frequencies --   3548.2274              3845.2513              3859.1879
 Red. masses --      1.0934                 1.0662                 1.0661
 Frc consts  --      8.1109                 9.2886                 9.3548
 IR Inten    --     74.2634               256.5068               226.4058

 - Thermochemistry -
 -------------------
 Temperature   298.150 Kelvin.  Pressure   1.00000 Atm.
 Atom     1 has atomic number  7 and mass  14.00307

 Molecular mass:   284.93838 amu.
 Principal axes and moments of inertia in atomic units:
                           1         2         3
     Eigenvalues --  2126.483513914.814944833.41391
           X            0.99971   0.00013   0.02423
           Y           -0.00008   1.00000  -0.00206
           Z           -0.02423   0.00206   0.99970
 This molecule is an asymmetric top.
 Rotational symmetry number  1.
 Warning -- assumption of classical behavior for rotation
           may cause significant error
 Rotational temperatures (Kelvin)      0.04073     0.02212     0.01792
 Rotational constants (GHZ):           0.84870     0.46100     0.37339
 Zero-point vibrational energy     460280.9 (Joules/Mol)
                                  110.00977 (Kcal/Mol)
 Warning -- explicit consideration of  26 degrees of freedom as
           vibrations may cause significant error
 Vibrational temperatures:     99.60   106.47   138.33   163.69   188.67
          (Kelvin)            201.69   236.37   250.63   297.77   305.05
                              339.84   373.60   407.92   426.18   471.53
                              508.32   512.44   576.38   616.00   634.35
                              688.97   717.01   736.88   785.04   825.20
                              885.83   914.64  1046.11  1058.67  1186.74
                             1193.11  1307.47  1339.78  1402.40  1405.29
                             1428.76  1443.01  1469.96  1554.18  1562.43
                             1589.83  1599.16  1609.75  1635.92  1710.28
                             1804.05  1845.64  1850.25  1862.74  1932.14
                             1946.78  2081.64  2091.62  2311.56  2319.32
                             3555.74  4421.26  4423.48  4514.00  4518.30
                             4996.38  4997.48  5104.43  5105.11  5532.46
                             5552.51

 Zero-point correction=                           0.175312 (Hartree/Particle)
 Thermal correction to Energy=                    0.190857
 Thermal correction to Enthalpy=                  0.191801
 Thermal correction to Gibbs Free Energy=         0.133183
 Sum of electronic and zero-point Energies=          -3105.616886
 Sum of electronic and thermal Energies=             -3105.601341
 Sum of electronic and thermal Enthalpies=           -3105.600397
 Sum of electronic and thermal Free Energies=        -3105.659015

                     E (Thermal)             CV                S
                      KCal/Mol        Cal/Mol-Kelvin    Cal/Mol-Kelvin
 Total                  119.765             57.584            123.372
 Electronic               0.000              0.000              0.000
 Translational            0.889              2.981             42.839
 Rotational               0.889              2.981             32.065
 Vibrational            117.987             51.623             48.468
 Vibration     1          0.598              1.969              4.175
 Vibration     2          0.599              1.966              4.044
 Vibration     3          0.603              1.952              3.531
 Vibration     4          0.607              1.938              3.204
 Vibration     5          0.612              1.922              2.929
 Vibration     6          0.615              1.913              2.801
 Vibration     7          0.623              1.886              2.500
 Vibration     8          0.627              1.874              2.390
 Vibration     9          0.641              1.830              2.070
 Vibration    10          0.643              1.823              2.026
 Vibration    11          0.655              1.785              1.831
 Vibration    12          0.668              1.746              1.664
 Vibration    13          0.682              1.704              1.512
 Vibration    14          0.690              1.681              1.438
 Vibration    15          0.711              1.620              1.271
 Vibration    16          0.729              1.568              1.151
 Vibration    17          0.732              1.563              1.139
 Vibration    18          0.766              1.469              0.960
 Vibration    19          0.790              1.409              0.865
 Vibration    20          0.801              1.381              0.824
 Vibration    21          0.835              1.297              0.713
 Vibration    22          0.854              1.254              0.662
 Vibration    23          0.867              1.223              0.628
 Vibration    24          0.901              1.149              0.553
 Vibration    25          0.930              1.088              0.497
 Vibration    26          0.975              0.999              0.423

                           ! Non-Optimized Parameters !
 Normal termination of Gaussian 16 at Thu Sep  5 02:22:36 2024.
